21
Properties=species:S:1:pos:R:3:forces:R:3 -3140.40221=T energy=-31483.47372386792 free_energy=-31483.47372386792 pbc="F F F"
S       -5.43124790     -14.69105299      10.46444555       0.00017379       0.00031548      -0.00022864
O       -4.70725766     -15.87544809      10.85059093      -0.00007534       0.00011301      -0.00025606
O       -6.75207351     -14.76405322       9.90093020       0.00028920       0.00011182       0.00012755
O       -5.45942104     -13.76958420      11.79230310      -0.00020263      -0.00023513       0.00053501
O       -4.56538427     -13.79432423       9.48078753      -0.00006729      -0.00054741       0.00005953
H       -5.81379618     -12.89560034      11.55782903      -0.00000717       0.00016343      -0.00011994
H       -3.75166447     -13.48765550       9.95397008      -0.00012817       0.00005846      -0.00013766
C       -0.49860851     -14.65459779      11.70086265       0.00021030      -0.00025412      -0.00030177
C       -1.85792011     -15.01403281      12.25600446       0.00025129      -0.00016260       0.00000310
C       -2.51844804     -13.92212503      13.08431467       0.00016636      -0.00007987       0.00037539
C       -2.67747783     -12.64356521      12.30453905       0.00001150       0.00002265       0.00007761
O        0.08315599     -15.27813117      10.85051183      -0.00022167       0.00050993       0.00050898
O        0.02095187     -13.55741236      12.28805879       0.00032249       0.00001466      -0.00048316
O       -2.72630848     -12.56545404      11.08906028      -0.00004635       0.00021143       0.00003744
O       -2.76382326     -11.56275172      13.07654094       0.00018722      -0.00027615       0.00005078
H       -2.49275982     -15.30218318      11.41039673      -0.00028195       0.00004256      -0.00017359
H       -1.72244584     -15.92075985      12.85671669      -0.00001141      -0.00014292       0.00018097
H       -1.94523571     -13.69488841      13.98650608      -0.00036879      -0.00001063      -0.00016911
H       -3.52258240     -14.23616589      13.38854971       0.00046861       0.00003664      -0.00016892
H        0.87742626     -13.40106107      11.85772638      -0.00053497      -0.00016199       0.00036416
H       -2.84592000     -10.80520919      12.47299218      -0.00013517       0.00027060      -0.00028070
