21
Properties=species:S:1:pos:R:3:forces:R:3 -3140.48085=T energy=-31483.83626140921 free_energy=-31483.83626140921 pbc="F F F"
S      -14.91505252     -23.85207703      -0.30275598      -0.00039248       0.00057036       0.00024916
O      -14.39834702     -23.24040277      -1.48761518       0.00015929       0.00013745      -0.00059962
O      -14.71147273     -25.29859834      -0.11086632       0.00000636      -0.00070924      -0.00031143
O      -14.45069695     -23.12908084       0.99943695      -0.00060884       0.00035339       0.00056579
O      -16.47794434     -23.71992380      -0.18478793      -0.00007328      -0.00018749      -0.00028291
H      -13.48774870     -23.33892762       1.18165517       0.00033279      -0.00005458      -0.00034294
H      -16.76203725     -22.79349809      -0.30182911       0.00010071       0.00019856       0.00012556
C      -10.21540902     -24.63475151       3.75124515       0.00014072      -0.00027470       0.00016040
C       -9.60636677     -25.09543228       2.44736003      -0.00010681      -0.00011969      -0.00006056
C      -10.49355174     -26.01443674       1.62023328       0.00013340      -0.00003105      -0.00005782
C      -11.78664219     -25.34472941       1.20514134       0.00014138      -0.00029957      -0.00012219
O       -9.88667039     -23.64206554       4.35027872       0.00058002      -0.00019940       0.00006533
O      -11.14888814     -25.49010652       4.21794101      -0.00039458       0.00028884       0.00019604
O      -11.99293956     -24.16058523       1.48639439      -0.00033750      -0.00001296       0.00014565
O      -12.58612246     -26.11891934       0.54933957       0.00027445       0.00001371       0.00026292
H       -9.33675118     -24.19522565       1.89056824      -0.00017729       0.00015748      -0.00016986
H       -8.66863996     -25.60416225       2.70431466       0.00021670       0.00009225      -0.00004388
H      -10.74737160     -26.92432456       2.17360622       0.00009812       0.00005653       0.00016913
H       -9.97626555     -26.32847397       0.70733861      -0.00005601       0.00013161      -0.00011456
H      -11.47893004     -25.09848917       5.04325330      -0.00008356       0.00001323       0.00008210
H      -13.51439737     -25.64165191       0.26277238       0.00004656      -0.00012501       0.00008435
