21
Properties=species:S:1:pos:R:3:forces:R:3 -3140.53738=T energy=-31483.717363764357 free_energy=-31483.717363764357 pbc="F F F"
S      -18.63841266      -8.84225516     -15.90452892      -0.00046831       0.00017032       0.00002817
O      -17.48909338      -9.40759498     -16.58774057      -0.00030839       0.00000697      -0.00001660
O      -19.90249221      -8.73129671     -16.56764745       0.00083971      -0.00008076       0.00048720
O      -18.76976244      -9.73963960     -14.58056237       0.00012401       0.00002140      -0.00051764
O      -18.26759826      -7.42655351     -15.31845092      -0.00037360       0.00000800      -0.00007391
H      -19.50689603      -9.40103160     -14.04625951       0.00006702      -0.00017700      -0.00017104
H      -17.35926652      -7.46293083     -14.91781641       0.00013662      -0.00007492       0.00013105
C      -13.84378495      -7.37550869     -12.25717349       0.00015127       0.00026771      -0.00041088
C      -13.10579275      -7.16686423     -13.55928451       0.00024855       0.00000709      -0.00074410
C      -13.32348152      -8.26109727     -14.59448716      -0.00016249      -0.00023317      -0.00025022
C      -14.77426455      -8.38281845     -14.99130385      -0.00017357      -0.00029366       0.00068331
O      -14.13584968      -6.49775107     -11.48476177      -0.00018179      -0.00004111       0.00051770
O      -14.10434127      -8.67664080     -12.01176044       0.00001626       0.00016463       0.00002307
O      -15.63210540      -7.62112897     -14.55550041       0.00018338       0.00021850      -0.00013866
O      -15.00766602      -9.35622167     -15.83722182      -0.00012136      -0.00006676      -0.00013667
H      -13.41326437      -6.19081583     -13.94132281       0.00009755      -0.00004202       0.00019480
H      -12.04102155      -7.08921885     -13.30611865      -0.00008720      -0.00008713       0.00001734
H      -12.99197800      -9.23447829     -14.21858755      -0.00014056       0.00017895      -0.00004539
H      -12.74568570      -8.05399893     -15.50169456       0.00019286      -0.00003180       0.00020167
H      -14.58569813      -8.69643492     -11.16834060      -0.00009137       0.00002218       0.00026273
H      -15.97714929      -9.38273461     -16.04294629       0.00005116       0.00006310      -0.00004252
