21
Properties=species:S:1:pos:R:3:forces:R:3 -3140.30273=T energy=-31483.577640602532 free_energy=-31483.577640602532 pbc="F F F"
S       -6.75170998      18.72783371      23.86462348       0.00026110       0.00027400      -0.00045170
O       -5.60001040      17.84463178      24.01030769      -0.00016189      -0.00022554       0.00000042
O       -6.75005152      19.72671505      22.83971848       0.00022650      -0.00038481       0.00052637
O       -8.06281855      17.84432751      23.82918746      -0.00005090       0.00005960      -0.00014094
O       -6.99823303      19.44890370      25.26231565      -0.00022912      -0.00012946      -0.00006042
H       -8.08602669      17.33281596      22.98735427       0.00002976      -0.00004753      -0.00016868
H       -7.17899269      18.77561092      25.94102010       0.00041036       0.00012233      -0.00013807
C       -5.72774368      15.55868087      21.53918942      -0.00001266      -0.00013737       0.00011934
C       -6.42344500      14.43271615      20.79889113      -0.00004399       0.00019169       0.00004852
C       -7.65759247      13.85963790      21.48819374      -0.00007856      -0.00007302       0.00003195
C       -8.73975031      14.87931156      21.74292660      -0.00000226       0.00008655       0.00011683
O       -5.03109754      16.36696185      20.97388615      -0.00018506       0.00048625       0.00002786
O       -5.94495523      15.52840411      22.85104945       0.00003362      -0.00000215       0.00012827
O       -8.59684060      16.08695509      21.70509790      -0.00013098      -0.00015334      -0.00034085
O       -9.91146424      14.31617699      22.04963379      -0.00004655      -0.00007343       0.00006332
H       -6.65038573      14.81352610      19.79808554       0.00001218       0.00005996       0.00000694
H       -5.67276307      13.64364525      20.66611506       0.00010522       0.00018187       0.00009735
H       -7.38070046      13.44819631      22.46647199      -0.00013682       0.00006300       0.00004997
H       -8.08585071      13.04264512      20.90201919       0.00002067      -0.00014473      -0.00006780
H       -5.65003366      16.38561023      23.25078027       0.00001193       0.00000662       0.00014982
H      -10.52975396      15.04652274      22.22395528      -0.00003253      -0.00016077       0.00000165
