21
Properties=species:S:1:pos:R:3:forces:R:3 -3140.37549=T energy=-31483.55372896777 free_energy=-31483.55372896777 pbc="F F F"
S        2.87843774       2.70288809      27.54160774      -0.00002250       0.00033442       0.00039629
O        3.70977982       1.54915183      27.76756455      -0.00002551       0.00011754       0.00005269
O        2.30121077       2.97326717      26.25150704      -0.00021422      -0.00003505       0.00015092
O        1.72714096       2.62594878      28.64710221       0.00023928       0.00009415       0.00018102
O        3.64721575       4.03084842      27.96279496      -0.00022626      -0.00008055       0.00024206
H        1.31086428       3.51340276      28.76805348      -0.00030544      -0.00014059       0.00042995
H        3.84252827       4.02007283      28.93284774      -0.00022283      -0.00026187      -0.00016462
C        3.03854114       4.60095404      31.49095977      -0.00002927       0.00030792       0.00021614
C        2.03821113       3.50173746      31.77193608       0.00033259       0.00013328      -0.00039130
C        0.64108339       4.04985086      32.05335319      -0.00004852      -0.00011271      -0.00002143
C        0.11576261       4.84326672      30.88738721      -0.00001204       0.00003171      -0.00022531
O        3.88642431       4.59027127      30.62102076       0.00061250      -0.00015181       0.00035071
O        2.92233454       5.62893570      32.33883116       0.00002843      -0.00037885       0.00051820
O        0.60451639       4.84695179      29.77154533       0.00027318      -0.00003044      -0.00001940
O       -0.96704701       5.56106283      31.18048502       0.00008029       0.00025377      -0.00019884
H        2.03508072       2.82772544      30.91121436       0.00005444      -0.00003580      -0.00061609
H        2.40176002       2.94535718      32.64279217       0.00015201       0.00069224      -0.00012754
H        0.64414162       4.69577396      32.93490782      -0.00003258      -0.00018643      -0.00003649
H       -0.06027571       3.23103114      32.24448284       0.00001224      -0.00045289      -0.00004541
H        3.60082202       6.27710216      32.08420823      -0.00026668      -0.00036157      -0.00055598
H       -1.21036402       6.03632012      30.36801260      -0.00037876       0.00026276      -0.00013546
