21
Properties=species:S:1:pos:R:3:forces:R:3 -3140.32871=T energy=-31483.238743429047 free_energy=-31483.238743429047 pbc="F F F"
S        2.20331040     -14.82444680      11.15981998       0.00015887      -0.00004484      -0.00012827
O        2.77435931     -16.13164829      10.97608805      -0.00003940       0.00001574      -0.00019482
O        1.65954518     -14.04962603      10.08013219       0.00004804       0.00012541      -0.00008047
O        1.07898497     -15.01872596      12.29949972       0.00026330      -0.00055295      -0.00012267
O        3.24453487     -13.87155376      11.90952617       0.00021549       0.00003167       0.00011710
H        0.60003287     -14.17974833      12.41020587      -0.00018565       0.00057234       0.00024268
H        3.62683085     -14.36476551      12.66840325       0.00003599       0.00007436      -0.00002967
C        4.56452065     -19.95438125      13.37007376       0.00002004       0.00010049      -0.00000800
C        5.61283484     -18.94329844      12.96588162      -0.00010300       0.00001383      -0.00000679
C        5.10778507     -17.50752488      12.87909898      -0.00000063       0.00010657       0.00001973
C        4.55511930     -17.02871198      14.19813540      -0.00013512      -0.00009704      -0.00041342
O        4.79493959     -21.00311131      13.91694377       0.00014823       0.00002422       0.00002832
O        3.32207011     -19.58377064      12.99855900       0.00010824       0.00001299       0.00015110
O        4.52400123     -17.66535639      15.22060030      -0.00003265      -0.00021619       0.00041499
O        4.07729128     -15.76068055      14.12537163      -0.00008067       0.00007761      -0.00013065
H        6.43293679     -19.03951809      13.68215190      -0.00001124      -0.00002624      -0.00008954
H        6.00277143     -19.26584711      11.99228719      -0.00002118       0.00009732      -0.00016427
H        4.31922929     -17.39742374      12.12253840      -0.00006841      -0.00007065       0.00001432
H        5.92704524     -16.83858318      12.58866589      -0.00011525       0.00015092      -0.00008052
H        2.72945179     -20.29076462      13.30297109      -0.00000228      -0.00027095       0.00033318
H        3.71002604     -15.56176704      15.00619815      -0.00020222      -0.00012451       0.00012800
