21
Properties=species:S:1:pos:R:3:forces:R:3 -3140.28675=T energy=-31483.15379997306 free_energy=-31483.15379997306 pbc="F F F"
S       -6.61725676      12.33093103      22.19968059       0.00009243       0.00024792       0.00035308
O       -5.46974278      11.65235785      21.65941569       0.00007534      -0.00033164      -0.00049478
O       -7.71786674      12.80779054      21.41068321      -0.00006115      -0.00023144       0.00004229
O       -7.19398704      11.37919101      23.37313798       0.00049433      -0.00048879       0.00010845
O       -6.09728758      13.58645285      23.06584904       0.00075430      -0.00004929      -0.00017292
H       -8.06212349      11.72331819      23.64555459       0.00021369      -0.00021762       0.00041123
H       -5.17545961      13.41091881      23.32170680      -0.00050485      -0.00014247      -0.00029953
C       -8.00992103       7.94830547      20.31653521      -0.00006430       0.00000454      -0.00000659
C       -7.42246983       8.92576598      21.30406948      -0.00017524      -0.00002456       0.00013423
C       -6.83477076       8.28136198      22.54995221      -0.00030205       0.00019109      -0.00001979
C       -5.74341012       7.29704992      22.21020637      -0.00011730       0.00034547       0.00025809
O       -8.10595677       8.13933731      19.13167499       0.00033979       0.00002326      -0.00047130
O       -8.48150854       6.83772927      20.91872298      -0.00014299      -0.00025547      -0.00004792
O       -5.33117203       7.07610994      21.09645107       0.00050232       0.00049230      -0.00024650
O       -5.26401940       6.67168304      23.29827314      -0.00011176       0.00020242       0.00040936
H       -6.67605627       9.52328397      20.77186331      -0.00017631       0.00014651       0.00013822
H       -8.22695770       9.61927746      21.58270769      -0.00022154      -0.00011892      -0.00002447
H       -7.60703599       7.74507269      23.11294993      -0.00027265      -0.00025643      -0.00021495
H       -6.42935733       9.04902598      23.21676452      -0.00042813      -0.00000022       0.00007005
H       -8.83102331       6.27637884      20.20705725      -0.00007379       0.00009494       0.00003832
H       -4.58498653       6.05717022      22.97364340       0.00018017       0.00036821       0.00003461
