21
Properties=species:S:1:pos:R:3:forces:R:3 -3140.29438=T energy=-31483.30999013391 free_energy=-31483.30999013391 pbc="F F F"
S        7.96609310      -9.71696886      17.48775148       0.00007231      -0.00009069      -0.00008771
O        9.04378916     -10.49169770      16.93824497       0.00010264       0.00008500       0.00020039
O        7.68332027      -8.36741063      17.07596889      -0.00000900       0.00012302      -0.00016864
O        6.65734753     -10.62139428      17.35412776      -0.00006683      -0.00014338      -0.00015529
O        8.13193503      -9.64570669      19.09611926      -0.00011592      -0.00010625       0.00017285
H        5.89820541     -10.13515311      17.74049608       0.00001688      -0.00015504      -0.00020579
H        8.39465425     -10.52611642      19.41507788      -0.00003378       0.00008432       0.00014157
C        4.32048325      -9.29301035      20.23789309      -0.00005267       0.00000301       0.00010001
C        5.54367525      -8.51077916      20.64820316       0.00000310       0.00001574       0.00011316
C        5.87140123      -7.34096753      19.73039044      -0.00001428      -0.00003719      -0.00010818
C        4.76242950      -6.32044968      19.68246143      -0.00006247       0.00005627       0.00010218
O        3.49540395      -9.76183542      20.97304472       0.00021726      -0.00000030       0.00002915
O        4.28016284      -9.49321441      18.88845849      -0.00003886       0.00014248       0.00002468
O        3.73220663      -6.38427322      20.30957510       0.00006748      -0.00011218      -0.00005610
O        5.04658944      -5.30496826      18.84963539      -0.00005162       0.00001693      -0.00001013
H        5.38334986      -8.18767878      21.67893418       0.00001485      -0.00000659      -0.00014918
H        6.38028526      -9.22044453      20.63560927      -0.00002141      -0.00002848       0.00011289
H        6.06443831      -7.67766664      18.70626331      -0.00011688       0.00004788      -0.00001474
H        6.78884236      -6.83934118      20.06286172       0.00007685      -0.00001074      -0.00016364
H        3.45966367      -9.99121238      18.72108416      -0.00000320       0.00014570      -0.00003892
H        4.27957667      -4.70898872      18.87997721       0.00001592      -0.00002973       0.00016189
