21
Properties=species:S:1:pos:R:3:forces:R:3 -3140.53771=T energy=-31483.71697206947 free_energy=-31483.71697206947 pbc="F F F"
S      -13.71373974      -6.24522342     -14.97290862       0.00039440       0.00014718      -0.00029869
O      -14.39880445      -6.58419875     -16.18337743      -0.00001669      -0.00033259      -0.00009263
O      -14.43400969      -5.67199675     -13.85037688       0.00004925      -0.00034636      -0.00004125
O      -12.90238160      -7.51135225     -14.49951411       0.00049794       0.00028561      -0.00011765
O      -12.54928089      -5.17861756     -15.25532464      -0.00005991      -0.00039712       0.00011751
H      -12.44451516      -7.30729638     -13.64159271      -0.00018718      -0.00049759      -0.00035339
H      -11.97438228      -5.52355237     -15.95796123      -0.00066875       0.00059097       0.00036864
C       -9.58043046      -6.36410773     -10.41390437       0.00044420       0.00050723      -0.00045411
C      -10.73296652      -6.80001160      -9.53905803       0.00031304       0.00023377      -0.00020957
C      -12.02289740      -6.02126461      -9.75366938      -0.00009394       0.00000447       0.00030524
C      -12.53972540      -6.16247335     -11.16422538      -0.00023347      -0.00001216       0.00053477
O       -8.63339807      -7.05382663     -10.69642171      -0.00081231       0.00009858      -0.00050298
O       -9.69044291      -5.08026776     -10.81486703       0.00030339      -0.00056076       0.00042781
O      -11.98704146      -6.88552007     -11.98797865      -0.00002028      -0.00037150      -0.00020508
O      -13.61882284      -5.45891280     -11.40279816       0.00043321       0.00017381       0.00012839
H      -10.87780162      -7.86749487      -9.71978749      -0.00025289       0.00007838       0.00019672
H      -10.39390516      -6.69560089      -8.50080611      -0.00002113       0.00026235       0.00010887
H      -11.88098915      -4.95500067      -9.54954505      -0.00012665      -0.00007924       0.00008404
H      -12.80522012      -6.37644428      -9.07426601       0.00010553       0.00008017      -0.00002058
H       -8.91485468      -4.90941300     -11.37411125      -0.00038955      -0.00039137       0.00029774
H      -13.88706922      -5.58367598     -12.34952333       0.00034161       0.00052557      -0.00027387
