21
Properties=species:S:1:pos:R:3:forces:R:3 -3140.30063=T energy=-31483.75846618217 free_energy=-31483.75846618217 pbc="F F F"
S        2.43075747      -6.96150953      19.89697809      -0.00019087       0.00019827       0.00004331
O        1.94490513      -5.88071189      19.09692159       0.00026536      -0.00075877       0.00041163
O        1.78847482      -7.25341167      21.17686201       0.00065031       0.00015914      -0.00038481
O        2.39989263      -8.28790229      19.01913973       0.00034869      -0.00023496       0.00052555
O        3.98675679      -6.87740236      20.15272695      -0.00032651       0.00049385      -0.00014779
H        2.90914502      -8.98277700      19.47147684       0.00001658       0.00065530      -0.00030520
H        4.15686347      -6.19141708      20.85213119       0.00015604      -0.00023894      -0.00039012
C        4.99162967      -2.68295704      23.49880932       0.00031233       0.00018963      -0.00007968
C        5.02725481      -3.77576135      24.54183114      -0.00037166       0.00007391       0.00010514
C        3.76035563      -4.61557178      24.62263822      -0.00007272       0.00003463       0.00020094
C        3.47455907      -5.33315231      23.32624830      -0.00004056       0.00000286       0.00025392
O        5.96411376      -2.18948367      22.98600162      -0.00048269      -0.00058483       0.00009907
O        3.73681195      -2.26494396      23.23013124       0.00001931      -0.00022653      -0.00006771
O        4.24053851      -5.26626893      22.36845835       0.00015710      -0.00013658      -0.00013216
O        2.36245841      -6.02182088      23.34021097      -0.00051928       0.00062224      -0.00031292
H        5.90101835      -4.39277716      24.32079760       0.00033196       0.00005786       0.00000296
H        5.21861501      -3.28391416      25.50387037       0.00011134       0.00016180      -0.00025538
H        2.89076216      -3.99695299      24.86754858      -0.00005508      -0.00010473       0.00021512
H        3.84867021      -5.37119087      25.41073528       0.00041023      -0.00033088      -0.00002720
H        3.82621123      -1.57688735      22.55030895      -0.00004724      -0.00051206      -0.00014417
H        2.21460622      -6.45787695      22.45204908      -0.00067292       0.00047882       0.00038977
