21
Properties=species:S:1:pos:R:3:forces:R:3 -3140.21612=T energy=-31483.48944275404 free_energy=-31483.48944275404 pbc="F F F"
S      -12.85842946      -8.18642425      -9.66093184       0.00033182       0.00020475      -0.00020063
O      -14.22316051      -8.55408675      -9.43606394      -0.00046086      -0.00016791       0.00017549
O      -11.78611535      -9.12307411      -9.35422873       0.00000215       0.00009829       0.00003545
O      -12.71772822      -7.71175210     -11.17587648       0.00002971      -0.00010656      -0.00018343
O      -12.50489085      -6.79313350      -8.96022734      -0.00012600       0.00012903      -0.00034675
H      -11.84087671      -7.30722524     -11.29797505       0.00004079       0.00002198       0.00004762
H      -12.32853904      -6.97649306      -8.01450937       0.00020261      -0.00017578       0.00040977
C      -10.97671201      -9.13169714      -5.77770976       0.00030546      -0.00056171       0.00053198
C      -11.24211264      -8.41918168      -4.46705790       0.00013441      -0.00011826      -0.00018120
C      -12.27906258      -7.30618912      -4.55265221      -0.00035608       0.00001717      -0.00006353
C      -13.59817293      -7.82530575      -5.07804881      -0.00009203       0.00009418      -0.00027716
O      -10.50070979     -10.23429076      -5.85740182      -0.00028936       0.00068160      -0.00057419
O      -11.30261533      -8.39071662      -6.85235643      -0.00004923       0.00007939       0.00010103
O      -13.92405625      -8.98909727      -5.08686911       0.00011959       0.00027846       0.00003457
O      -14.38293432      -6.84509740      -5.55702928       0.00049596       0.00001097       0.00003976
H      -11.54329653      -9.19017927      -3.75466732       0.00002587      -0.00000591       0.00034347
H      -10.27867561      -8.02298146      -4.12615074      -0.00004098       0.00004160       0.00006686
H      -11.94089892      -6.50183497      -5.21217523      -0.00007809      -0.00007773       0.00004351
H      -12.45400176      -6.86889817      -3.56334686      -0.00003071      -0.00003871      -0.00003214
H      -11.21278744      -8.94448583      -7.66213476       0.00004258      -0.00024849      -0.00009262
H      -15.16960005      -7.28622135      -5.92037809      -0.00020753      -0.00015609       0.00012160
