21
Properties=species:S:1:pos:R:3:forces:R:3 -3140.30350=T energy=-31483.75847307535 free_energy=-31483.75847307535 pbc="F F F"
S        2.59550043       7.71603788      29.90576189      -0.00012090       0.00026168       0.00007661
O        3.30042248       7.11914421      30.99710257       0.00002164      -0.00018936      -0.00000441
O        3.27324089       7.89261254      28.62309879      -0.00005700       0.00007585       0.00003707
O        1.26860410       6.87713453      29.64786110       0.00008282       0.00010583      -0.00007522
O        1.93611903       9.09832578      30.29070387       0.00033179       0.00015604      -0.00031421
H        0.68338960       7.37894386      29.05415171       0.00008314      -0.00007182       0.00010428
H        2.64438705       9.79611196      30.30106841      -0.00028567      -0.00024231       0.00015895
C        5.88081567      12.79655348      31.00489395      -0.00016985      -0.00027035      -0.00047607
C        5.52029091      13.17607117      29.58737564      -0.00016844       0.00035852      -0.00022697
C        5.62446405      12.03858844      28.58132148      -0.00000066      -0.00000775      -0.00002205
C        4.69763235      10.89722396      28.92136675       0.00019240      -0.00007915       0.00016046
O        5.49695131      13.37412448      31.99040887      -0.00019182       0.00048921       0.00060245
O        6.73834483      11.75583853      31.05971608       0.00034559      -0.00014699       0.00018036
O        3.92146713      10.95658317      29.87138450       0.00014330      -0.00002094      -0.00031287
O        4.80119269       9.87584984      28.11051869      -0.00041234      -0.00004369       0.00016212
H        4.50916838      13.58794017      29.61992811       0.00010450      -0.00013149       0.00021252
H        6.19055046      13.99702139      29.30311426       0.00022109       0.00006309      -0.00011044
H        6.64506204      11.64498585      28.53342166      -0.00023394      -0.00014490      -0.00000597
H        5.36830203      12.38917507      27.57566119      -0.00004891       0.00001662       0.00003570
H        6.89477794      11.59042934      32.00402658      -0.00006848      -0.00008598      -0.00007482
H        4.18012484       9.14502023      28.39467932       0.00023190      -0.00009172      -0.00010717
