21
Properties=species:S:1:pos:R:3:forces:R:3 -3140.30516=T energy=-31483.311084527802 free_energy=-31483.311084527802 pbc="F F F"
S      -15.64399187     -11.34366553      -1.57158692       0.00016051      -0.00012733      -0.00022994
O      -15.73323694     -12.39739864      -2.55763669       0.00008936      -0.00019193      -0.00014323
O      -16.28267965     -10.07309260      -1.73175462      -0.00077021       0.00042057       0.00037780
O      -16.11338367     -12.02962040      -0.19857406       0.00030192      -0.00048393      -0.00000200
O      -14.09813070     -11.05647834      -1.26959982      -0.00035447       0.00080994      -0.00022863
H      -16.35781443     -11.33067787       0.43104869      -0.00002486       0.00019268       0.00018339
H      -13.66240578     -11.89277331      -1.03090781       0.00062636      -0.00066574       0.00009297
C      -18.16618187     -13.88779121      -4.62282297       0.00006265      -0.00009433       0.00004828
C      -19.12548174     -15.00720949      -4.97899584       0.00002742      -0.00002718       0.00002635
C      -19.89337657     -15.60126637      -3.80511159      -0.00003308      -0.00003636      -0.00002718
C      -20.83118678     -14.60089083      -3.17617736       0.00003517       0.00004172      -0.00007463
O      -17.85846702     -13.02235408      -5.40806371       0.00007963      -0.00003092      -0.00003356
O      -17.66643065     -14.00811773      -3.39600002       0.00007768       0.00008523       0.00001752
O      -21.02892746     -13.48060058      -3.58337591      -0.00001010       0.00012811      -0.00012342
O      -21.45729489     -15.09884500      -2.09408002      -0.00010428       0.00000679       0.00006819
H      -19.80006831     -14.61395476      -5.74271811       0.00003799      -0.00003035      -0.00002624
H      -18.51851366     -15.78546725      -5.45974750       0.00000836      -0.00005108       0.00005816
H      -19.20294560     -15.96014442      -3.03416801      -0.00002683       0.00000585       0.00006714
H      -20.48867771     -16.45952491      -4.13471601      -0.00002776       0.00002295       0.00003836
H      -17.02720308     -13.28347505      -3.22125014      -0.00007330      -0.00011565      -0.00002157
H      -22.02940909     -14.38527622      -1.76621603      -0.00008232       0.00014037      -0.00006779
