21
Properties=species:S:1:pos:R:3:forces:R:3 -3140.40420=T energy=-31483.39690179588 free_energy=-31483.39690179588 pbc="F F F"
S      -13.77722718      -5.09230469      -7.52902631      -0.00009016      -0.00036432      -0.00053850
O      -13.34400502      -5.35154774      -8.87585294      -0.00045645      -0.00022054       0.00018787
O      -15.14214476      -4.77930147      -7.19971784       0.00012231       0.00006261      -0.00016272
O      -13.26866997      -6.31148813      -6.64294957      -0.00025126      -0.00011498       0.00014693
O      -12.90104460      -3.86943505      -6.94049862      -0.00019024      -0.00002891      -0.00038766
H      -13.76629679      -6.32509395      -5.78519800       0.00003828       0.00010729       0.00011926
H      -12.03363931      -3.87924955      -7.38093628       0.00041532      -0.00057635       0.00044714
C      -16.43445010      -9.14425064      -5.77603894       0.00029206      -0.00028919      -0.00019563
C      -16.47439691      -7.86495051      -6.58329100       0.00005822       0.00011015       0.00005543
C      -17.07782348      -6.66605423      -5.86613778      -0.00000894      -0.00001550       0.00003594
C      -16.24885939      -6.22948618      -4.68757306      -0.00015187       0.00011098       0.00007200
O      -16.08054255     -10.21220086      -6.20632471       0.00013647       0.00060484       0.00030550
O      -16.84097084      -8.96573646      -4.50256975       0.00031358      -0.00006008      -0.00037766
O      -15.04969750      -6.40298909      -4.55841195       0.00008507       0.00017820       0.00003690
O      -16.95792256      -5.58475617      -3.76366159      -0.00037479      -0.00011477       0.00027460
H      -15.44086077      -7.65354307      -6.88630043       0.00009470       0.00036828      -0.00006715
H      -17.02134546      -8.08807503      -7.50436042      -0.00004010       0.00009313      -0.00001013
H      -18.09537256      -6.86270621      -5.51835253      -0.00012218       0.00019169       0.00001255
H      -17.09681193      -5.80893402      -6.54754157       0.00003505       0.00008793       0.00002964
H      -16.75466754      -9.82865528      -4.06538611       0.00034648       0.00006426      -0.00021290
H      -16.33032075      -5.34511063      -3.06147819      -0.00025106      -0.00019421       0.00022918
