21
Properties=species:S:1:pos:R:3:forces:R:3 -3140.34961=T energy=-31483.438936820567 free_energy=-31483.438936820567 pbc="F F F"
S       -4.02699377      18.63348731      24.70083557      -0.00043167      -0.00025044      -0.00014239
O       -2.86022267      18.49536962      25.52428539       0.00001407       0.00002092       0.00009012
O       -5.35112498      18.41173941      25.23864493       0.00030482       0.00002803       0.00013009
O       -3.96849611      20.09923896      24.05289431       0.00060105       0.00007325       0.00016388
O       -3.87330002      17.79181614      23.35777439       0.00008028      -0.00002629       0.00003955
H       -4.84206813      20.30660060      23.67813234      -0.00053282       0.00024034      -0.00023379
H       -4.13458884      16.85568553      23.55377821      -0.00003310      -0.00003366      -0.00001587
C       -7.08627364      15.81892354      21.83760713       0.00004166      -0.00004887       0.00002639
C       -7.20021394      16.89295119      22.89625899       0.00013599      -0.00012517      -0.00017071
C       -7.34444932      16.36978997      24.31769968      -0.00006565       0.00011575       0.00004458
C       -6.18586815      15.49288692      24.70918542      -0.00012088       0.00005424      -0.00015640
O       -6.68971050      16.00455466      20.71550263      -0.00009960      -0.00009567       0.00018041
O       -7.51172625      14.61537003      22.27304587       0.00006592       0.00007719      -0.00014782
O       -5.11333464      15.44485331      24.13144427      -0.00002439       0.00004739       0.00005027
O       -6.43192069      14.74157434      25.77986316      -0.00010729       0.00001419       0.00002313
H       -6.31191261      17.52355654      22.79418476      -0.00003458      -0.00002732       0.00000443
H       -8.06065858      17.51483580      22.62534523      -0.00002091       0.00004766       0.00003787
H       -8.26499849      15.79401111      24.44558834      -0.00003951       0.00000811      -0.00000020
H       -7.35303989      17.20957783      25.02014300       0.00007258      -0.00009434      -0.00001236
H       -7.37842290      14.00058357      21.53310712      -0.00000411       0.00007788      -0.00000088
H       -5.62262677      14.22652668      25.93638673       0.00019828      -0.00010325       0.00009046
