21
Properties=species:S:1:pos:R:3:forces:R:3 -3140.46231=T energy=-31483.39930346132 free_energy=-31483.39930346132 pbc="F F F"
S        2.33075635       4.89488493      28.54428734       0.00024161      -0.00007287       0.00015726
O        2.58102015       5.51802610      27.27225609       0.00080956      -0.00004101      -0.00013256
O        3.30422659       4.87338225      29.60269713      -0.00021809      -0.00023195       0.00035250
O        0.95213011       5.48763184      29.07563811      -0.00001210      -0.00012276      -0.00012481
O        1.94659923       3.34670846      28.28789303       0.00027157      -0.00062698       0.00016368
H        0.85683928       5.28016455      30.04008829       0.00040229      -0.00018345      -0.00003516
H        1.50487415       3.28317615      27.42357086      -0.00071807      -0.00004181       0.00044122
C        1.24287186       8.07875858      32.16681785       0.00030326      -0.00001068       0.00031348
C        2.46966713       7.58910576      31.43010444       0.00011396      -0.00042987       0.00016522
C        3.20418562       6.44525337      32.11417255       0.00000238      -0.00027579      -0.00032401
C        2.31454631       5.24739700      32.31114337      -0.00027108       0.00020409      -0.00008864
O        0.37093360       8.74734902      31.67320544      -0.00036589       0.00007445      -0.00019107
O        1.24046272       7.71719773      33.46590011       0.00031543       0.00010383       0.00040305
O        1.22461638       5.08680070      31.78908895      -0.00028244       0.00060568      -0.00051742
O        2.82988941       4.33848661      33.13552172      -0.00011432       0.00033200      -0.00070977
H        2.13895986       7.30570184      30.42537216      -0.00027005      -0.00005295      -0.00016657
H        3.13210598       8.45348273      31.31061064       0.00000289      -0.00015263       0.00084895
H        3.58922892       6.74409375      33.09337768      -0.00049938       0.00043080      -0.00026149
H        4.04468276       6.11807398      31.49437528      -0.00013366       0.00037491      -0.00025955
H        0.41070379       8.05960694      33.83688304       0.00018912      -0.00009175       0.00070101
H        2.17729152       3.61937275      33.18092529       0.00023263       0.00020865      -0.00073525
