21
Properties=species:S:1:pos:R:3:forces:R:3 -3140.31275=T energy=-31483.296686294114 free_energy=-31483.296686294114 pbc="F F F"
S      -14.10786111      -5.23770572      -0.07041705      -0.00029382      -0.00000379      -0.00038380
O      -12.77478277      -5.59832146       0.34343587       0.00001097       0.00035024      -0.00008297
O      -14.34538647      -4.16742447      -0.99533914      -0.00019449      -0.00008315       0.00007385
O      -14.82642528      -6.59279554      -0.62199158       0.00000159       0.00005862       0.00020814
O      -15.04840239      -5.01762383       1.18678688       0.00009990       0.00008821      -0.00026849
H      -14.33838138      -6.89956422      -1.40838412      -0.00045715       0.00006106       0.00002065
H      -15.01664969      -5.82557470       1.74071303       0.00007557       0.00001785       0.00025865
C      -16.06133473      -8.97367954       2.23290131       0.00025458      -0.00010641       0.00022579
C      -16.20346457      -9.10730207       3.73168058      -0.00018328      -0.00001972       0.00000095
C      -15.91574055      -7.84369193       4.53168688      -0.00012860       0.00009847       0.00008857
C      -16.83669220      -6.71180954       4.14906615       0.00007510      -0.00001001      -0.00010443
O      -16.59367780      -9.70179583       1.43641040       0.00013684      -0.00024038      -0.00037856
O      -15.22176170      -7.97803750       1.86446635       0.00039363      -0.00000429       0.00014865
O      -17.71917845      -6.78559764       3.32526547       0.00010408       0.00013386      -0.00029217
O      -16.56762759      -5.57899850       4.82194680       0.00010777       0.00017345       0.00018263
H      -17.21554100      -9.47745811       3.91111098      -0.00029200       0.00009593      -0.00022666
H      -15.51672967      -9.90823451       4.03061893      -0.00018652      -0.00017534       0.00009985
H      -14.88533961      -7.50857858       4.37019272       0.00000914      -0.00013450       0.00022982
H      -16.02885154      -8.03298190       5.60420876      -0.00030439      -0.00012053       0.00015946
H      -15.15908686      -8.00384039       0.88846492       0.00037967      -0.00016081       0.00014699
H      -17.18770668      -4.91305090       4.47978271       0.00039163      -0.00001874      -0.00010689
