21
Properties=species:S:1:pos:R:3:forces:R:3 -3140.40056=T energy=-31483.49989403324 free_energy=-31483.49989403324 pbc="F F F"
S       -9.63145675      -3.84719838     -17.63607188       0.00057338       0.00027069       0.00060949
O       -9.26924141      -3.52675346     -16.28763172      -0.00047192      -0.00024307      -0.00079191
O       -9.47890841      -5.18779042     -18.15673047      -0.00020361      -0.00041336      -0.00002182
O      -11.11135288      -3.32881022     -17.86126066      -0.00022408       0.00031653       0.00061450
O       -8.80833706      -2.93902577     -18.67279716       0.00044088       0.00041396      -0.00038170
H      -11.36820311      -3.47027959     -18.80144712      -0.00018229      -0.00019583      -0.00048293
H       -8.92488321      -2.00619047     -18.42686603      -0.00018961      -0.00024198       0.00017234
C      -11.36470109      -6.32565360     -20.84834354       0.00021665       0.00019664       0.00035855
C      -12.70585810      -6.17458976     -21.54238469      -0.00009775      -0.00004533       0.00003910
C      -13.84298505      -5.67160679     -20.66062283       0.00011325       0.00003335      -0.00015402
C      -13.54149978      -4.33087947     -20.03875023       0.00038385       0.00024295      -0.00008452
O      -10.33110334      -6.45531433     -21.45663940      -0.00049724      -0.00000230       0.00048048
O      -11.46852855      -6.31877352     -19.51673036       0.00005460       0.00027607      -0.00054157
O      -12.52822962      -3.68484257     -20.23466063      -0.00003637      -0.00036743       0.00038168
O      -14.49709160      -3.91202792     -19.20670277       0.00020707      -0.00040224       0.00015628
H      -12.53365039      -5.50436158     -22.38938727       0.00020149       0.00009180      -0.00016890
H      -12.94932599      -7.15642026     -21.96343698      -0.00003695      -0.00006664      -0.00024777
H      -14.03659117      -6.37034539     -19.84008529      -0.00014694       0.00030274       0.00053665
H      -14.76911382      -5.58162544     -21.23694024      -0.00009719      -0.00041915      -0.00038289
H      -10.58631300      -6.16867022     -19.11654259       0.00012112      -0.00010239      -0.00015178
H      -14.16173255      -3.08709271     -18.81222304      -0.00012805       0.00035494       0.00006119
