11
Properties=species:S:1:pos:R:3:forces:R:3 -1612.25247=T energy=-20590.109327218128 free_energy=-20590.109327218128 pbc="F F F"
S       15.04175374     -17.60869143     -29.23475230      -0.00003002       0.00013535      -0.00018499
O       14.76977435     -17.12386268     -30.56438299       0.00006327      -0.00002751       0.00029469
O       15.11864817     -16.73692183     -28.09138920      -0.00006537       0.00003460      -0.00008333
O       14.04134727     -18.79208580     -28.94690664      -0.00010642      -0.00007355      -0.00008941
O       16.45937008     -18.39782143     -29.27451326       0.00009902      -0.00004778      -0.00012677
H       14.30368634     -19.21595645     -28.04983727      -0.00001365      -0.00006837       0.00010334
H       16.66066582     -18.61120609     -30.20149505       0.00003864      -0.00001162       0.00006741
N       14.99799417     -19.76380862     -26.64558263      -0.00040433      -0.00010090       0.00022430
H       15.04417393     -18.99107251     -25.98798672       0.00011471       0.00020552       0.00014004
H       14.57235442     -20.55554091     -26.17616959       0.00020272       0.00009748      -0.00029370
H       15.95543164     -20.01067204     -26.87921966       0.00010151      -0.00014301      -0.00005138
