11
Properties=species:S:1:pos:R:3:forces:R:3 -1612.25954=T energy=-20590.109363001848 free_energy=-20590.109363001848 pbc="F F F"
S       -8.87663172      -6.02989474       3.32240116       0.00001022      -0.00020973      -0.00001010
O       -7.75486707      -5.53212780       2.57651734      -0.00014436       0.00032425       0.00087285
O       -9.18551927      -5.51517196       4.63949863      -0.00040364      -0.00054507      -0.00032949
O      -10.17923731      -5.86212097       2.39644743       0.00030400      -0.00006956      -0.00007170
O       -8.83226493      -7.60853591       3.38854529       0.00006890       0.00012580       0.00009882
H      -10.96126044      -5.79352462       2.97297256      -0.00000356       0.00016043       0.00004359
H       -8.14405648      -7.85692762       4.09653228      -0.00034039      -0.00011312      -0.00045560
N       -7.08256976      -8.04207527       5.42932665      -0.00003907       0.00050118       0.00003579
H       -6.18296655      -7.60468516       5.25279714       0.00031072      -0.00053898      -0.00045153
H       -6.91698510      -8.99520117       5.73542072      -0.00027178      -0.00040007       0.00065769
H       -7.51967214      -7.53668337       6.19540773       0.00050916       0.00076470      -0.00039043
