11
Properties=species:S:1:pos:R:3:forces:R:3 -1612.21922=T energy=-20589.71849762814 free_energy=-20589.71849762814 pbc="F F F"
S       -5.23130139      -1.16640292      -1.06844723       0.00014635       0.00011104       0.00014043
O       -5.79439478      -2.35615863      -1.65228543       0.00005609      -0.00003862      -0.00000858
O       -5.87080968       0.10997085      -1.29296079      -0.00008732       0.00008798      -0.00009432
O       -4.96919917      -1.38720314       0.49800881      -0.00004691      -0.00010172      -0.00002584
O       -3.66887378      -1.06867795      -1.39028663      -0.00013676      -0.00007879       0.00006187
H       -5.82045226      -1.50675195       0.95582921       0.00006345       0.00003159      -0.00001571
H       -3.54203024      -0.99297154      -2.35280880       0.00000994       0.00000716      -0.00005915
N       -4.54976944       1.79178449       0.99798086      -0.00029325       0.00011373      -0.00019875
H       -4.34955365       0.83357998       1.27491615       0.00007937      -0.00025243       0.00013712
H       -5.21468676       1.71142227       0.23095163       0.00010870       0.00007570       0.00012273
H       -3.68941604       2.13650155       0.57901587       0.00010028       0.00004458      -0.00005971
