11
Properties=species:S:1:pos:R:3:forces:R:3 -1612.55811=T energy=-20590.109326204423 free_energy=-20590.109326204423 pbc="F F F"
S       -9.05021656      -6.43428066     -22.72031415      -0.00047572       0.00024581      -0.00017664
O       -8.63125353      -7.34909152     -23.75024134       0.00027025      -0.00020301      -0.00000238
O      -10.39921664      -5.93612161     -22.62559236      -0.00000215      -0.00011015       0.00017136
O       -8.69208807      -7.16729846     -21.31733267       0.00042635      -0.00019282      -0.00063238
O       -8.08096009      -5.19237740     -22.67226208       0.00009313       0.00025477      -0.00012951
H       -9.33051752      -6.86755837     -20.64810019      -0.00058070       0.00006913       0.00077648
H       -7.11837511      -5.54499889     -22.62412796       0.00012690       0.00002427       0.00008602
N       -5.69225592      -6.37612293     -22.45241926       0.00032404       0.00076266       0.00012943
H       -4.83067923      -5.84451342     -22.39375805      -0.00038594      -0.00033766       0.00037355
H       -5.60915147      -7.03295705     -23.22269951      -0.00004174      -0.00065911      -0.00022186
H       -5.78404085      -6.92637960     -21.60328779       0.00024587       0.00014623      -0.00037429
