11
Properties=species:S:1:pos:R:3:forces:R:3 -1612.33817=T energy=-20590.10932742087 free_energy=-20590.10932742087 pbc="F F F"
S       -3.49475421       0.33925951      -2.22498290      -0.00005755      -0.00003724      -0.00042517
O       -3.90741260      -0.01449795      -3.55829819      -0.00005263       0.00006425      -0.00003552
O       -2.95962623       1.63627912      -1.89586098      -0.00002766      -0.00009561       0.00006163
O       -4.79493437       0.08624244      -1.28716068       0.00015467       0.00054991       0.00070813
O       -2.49680335      -0.74299903      -1.66208945       0.00024304      -0.00001507       0.00028995
H       -4.75570090       0.70913366      -0.54161121      -0.00019267      -0.00044806      -0.00050762
H       -2.92643415      -1.66600647      -1.79144922       0.00000605      -0.00003973      -0.00012475
N       -3.88351482      -3.00109563      -2.02644847       0.00044376       0.00019817      -0.00032269
H       -4.14371727      -3.04118050      -3.00744494      -0.00001247       0.00003380      -0.00008649
H       -3.51795500      -3.90786771      -1.75727283       0.00006282      -0.00016865       0.00009859
H       -4.73686894      -2.83430036      -1.50093245      -0.00056744      -0.00004169       0.00034393
