11
Properties=species:S:1:pos:R:3:forces:R:3 -1612.50279=T energy=-20590.10931799343 free_energy=-20590.10931799343 pbc="F F F"
S       -5.78792788      -4.35790988      -1.02320649       0.00011759      -0.00001674      -0.00045917
O       -4.93744101      -3.85667802      -2.07317659      -0.00007796       0.00002420       0.00026309
O       -7.13268652      -3.88466389      -0.82142813      -0.00030327       0.00006327       0.00022608
O       -5.77517483      -5.93132936      -1.11192575       0.00022984      -0.00017798      -0.00005817
O       -5.02641060      -4.11646147       0.38967639      -0.00050474       0.00006543      -0.00011995
H       -6.28452089      -6.29724074      -0.29941905       0.00006619      -0.00010129       0.00020469
H       -4.08522029      -3.95967581       0.20275636       0.00052098       0.00009413      -0.00003698
N       -7.05432471      -6.60938489       1.13606051       0.00010087      -0.00035028      -0.00047681
H       -6.49700240      -6.15780552       1.85558432       0.00026035       0.00016057       0.00054246
H       -7.95762390      -6.14521349       1.12737147      -0.00014424       0.00046867       0.00002238
H       -7.19627746      -7.57653132       1.40580587      -0.00026582      -0.00022992      -0.00010754
