11
Properties=species:S:1:pos:R:3:forces:R:3 -1612.22372=T energy=-20589.71849833773 free_energy=-20589.71849833773 pbc="F F F"
S      -10.71832300       0.26337923     -17.95451184       0.00008696      -0.00009176      -0.00001298
O      -10.15971288      -0.95309709     -18.49917730      -0.00017214       0.00015044       0.00007933
O      -11.33398364       1.22032968     -18.83693460       0.00003999      -0.00002623      -0.00001705
O      -11.69905621      -0.07570888     -16.73204994       0.00016148      -0.00007254       0.00003079
O       -9.65762257       0.98217142     -16.99923356      -0.00007689       0.00001389      -0.00004951
H      -12.49350351      -0.52725341     -17.06891506      -0.00006137      -0.00003470      -0.00005026
H       -8.94242052       1.36225017     -17.53987806       0.00004877       0.00002019       0.00001479
N       -9.94279852      -2.67064877     -15.88675651       0.00006227      -0.00003417      -0.00010439
H       -9.84780687      -2.58166082     -16.89668457       0.00003033      -0.00003362      -0.00006750
H      -10.57399210      -1.92082979     -15.61416221      -0.00015818       0.00012887       0.00013675
H       -9.03671531      -2.41288293     -15.50316324       0.00003889      -0.00002025       0.00004000
