11
Properties=species:S:1:pos:R:3:forces:R:3 -1612.55684=T energy=-20590.109326609905 free_energy=-20590.109326609905 pbc="F F F"
S       10.28470547      -7.73794928     -41.97461684       0.00000615       0.00010297       0.00012581
O       11.11922525      -6.83595422     -42.72755780      -0.00005579      -0.00013220       0.00005138
O        8.84792431      -7.64408432     -41.96914317       0.00007713      -0.00001621      -0.00000900
O       10.72986696      -9.20700736     -42.33210428       0.00001872       0.00001764      -0.00005040
O       10.73137580      -7.64411782     -40.41716831      -0.00004766       0.00000496      -0.00008420
H       10.21942060      -9.85008283     -41.71637698      -0.00005181      -0.00003437       0.00001250
H       11.61427485      -7.23861106     -40.37979084       0.00001513      -0.00000195      -0.00003302
N        9.35017045     -10.64209915     -40.54533851      -0.00058451       0.00023379      -0.00008241
H        8.37166867     -10.38869481     -40.64556766       0.00068051      -0.00034124       0.00001106
H        9.41371079     -11.65321270     -40.50106540      -0.00009751       0.00014427      -0.00007403
H        9.66335906     -10.26527235     -39.65531817       0.00003961       0.00002235       0.00013243
