11
Properties=species:S:1:pos:R:3:forces:R:3 -1612.54554=T energy=-20590.17612184024 free_energy=-20590.17612184024 pbc="F F F"
S       -5.57444033      -5.89670459       5.28928110       0.00004762      -0.00008219      -0.00019249
O       -4.24907686      -5.84057895       5.86264320       0.00035262      -0.00005475       0.00025308
O       -5.73896968      -5.61842452       3.88297348      -0.00007057       0.00036946      -0.00087130
O       -6.28059643      -7.24056221       5.68455419      -0.00045571      -0.00025481       0.00074953
O       -6.57469742      -4.97232373       6.14131568      -0.00004444       0.00045162       0.00038029
H       -5.70317568      -8.00041271       5.33390066       0.00007115      -0.00026947      -0.00029896
H       -6.30299512      -4.04075838       6.05075785      -0.00020630       0.00004213      -0.00001929
N       -4.47503192      -9.09431102       4.79844470       0.00057237       0.00051719       0.00040046
H       -3.62151982      -8.79116006       5.26059787      -0.00007984      -0.00008860      -0.00008872
H       -4.31786752      -9.02106034       3.79746654       0.00017795       0.00004550      -0.00035751
H       -4.62199618     -10.07286062       5.02382536      -0.00036491      -0.00067601       0.00004524
