11
Properties=species:S:1:pos:R:3:forces:R:3 -1612.51164=T energy=-20590.10932691402 free_energy=-20590.10932691402 pbc="F F F"
S        0.81641102      -3.46037358       1.90565276       0.00018554       0.00012043       0.00016482
O        1.54211552      -2.22582385       1.75588703      -0.00002301       0.00002789      -0.00001066
O       -0.32929048      -3.79107290       1.09637783      -0.00009429      -0.00005412      -0.00006425
O        1.91740552      -4.63683293       1.71168252      -0.00018913      -0.00021447      -0.00004493
O        0.40870714      -3.66909224       3.41376122       0.00006779      -0.00011495      -0.00005521
H        1.46701563      -5.41402341       1.33956695       0.00010284       0.00014789       0.00008076
H        1.25027140      -3.54626376       3.98810101       0.00001495       0.00003317      -0.00009779
N        2.76259018      -3.39714193       4.65553165       0.00011171       0.00034028      -0.00038065
H        3.15204061      -2.50360645       4.36977465      -0.00008640      -0.00015730       0.00008109
H        3.33542765      -4.11939206       4.22842068      -0.00013544      -0.00003019      -0.00004506
H        2.85284432      -3.47564210       5.66252266       0.00004523      -0.00009862       0.00037184
