11
Properties=species:S:1:pos:R:3:forces:R:3 -1612.32496=T energy=-20590.153730861533 free_energy=-20590.153730861533 pbc="F F F"
S      -14.44187977       4.00916451     -14.84597268       0.00008529      -0.00025286      -0.00023098
O      -14.80857855       4.48497417     -16.16208598       0.00004488       0.00003564       0.00031877
O      -14.20833890       4.93365714     -13.76897908      -0.00001487       0.00011814      -0.00007832
O      -15.56537835       2.93169037     -14.39003254      -0.00022978       0.00021839      -0.00007039
O      -13.23187336       3.02019526     -14.92673950       0.00000426       0.00004382       0.00009394
H      -16.42577651       3.38416428     -14.34671225       0.00017878      -0.00017863       0.00002711
H      -13.41862291       2.33601032     -15.67113921      -0.00006353       0.00000886      -0.00007893
N      -14.01233665       1.31165691     -16.82216365       0.00064365       0.00055446      -0.00038201
H      -14.81543533       0.84787677     -16.40795347      -0.00035182      -0.00037883       0.00005212
H      -13.39698997       0.60114160     -17.20277547      -0.00024101       0.00001095       0.00020005
H      -14.36012088       1.87706425     -17.59138381      -0.00005583      -0.00017992       0.00014848
