11
Properties=species:S:1:pos:R:3:forces:R:3 -1612.30511=T energy=-20589.573085260272 free_energy=-20589.573085260272 pbc="F F F"
S        6.25836451      -1.92419902     -40.42999375       0.00012620      -0.00075222      -0.00005007
O        7.36691981      -1.22071663     -41.00941778       0.00002146       0.00012243       0.00014007
O        6.18635235      -3.36053013     -40.32610048       0.00002348      -0.00020421      -0.00004494
O        6.03708606      -1.29723650     -38.96714575       0.00014568       0.00031695       0.00042483
O        4.90661996      -1.47205081     -41.17816503      -0.00021362      -0.00045963       0.00014696
H        5.42398447      -1.86701306     -38.47079770       0.00003880       0.00007941      -0.00028162
H        5.06845360      -0.61630853     -41.61090493      -0.00018181       0.00087270      -0.00040016
N        8.29765253      -5.09340101     -41.71886909       0.00000217      -0.00042768      -0.00028227
H        9.05501691      -4.41652503     -41.76012292       0.00021046       0.00031321       0.00017074
H        7.97439993      -5.20669826     -42.67574499      -0.00021045       0.00004297       0.00025177
H        7.54145774      -4.64205060     -41.20939400       0.00003762       0.00009604      -0.00007534
