11
Properties=species:S:1:pos:R:3:forces:R:3 -1612.55800=T energy=-20590.109326508536 free_energy=-20590.109326508536 pbc="F F F"
S       -4.11720515      -5.57168980       3.95848552       0.00032972       0.00005493      -0.00014910
O       -3.23271825      -6.04662167       2.92634898      -0.00001776       0.00012088      -0.00000167
O       -3.89375586      -4.33552579       4.66482195      -0.00009206      -0.00009894      -0.00018919
O       -5.58432680      -5.49132685       3.26926462      -0.00045162       0.00061825       0.00021869
O       -4.34700592      -6.69919916       5.03550856      -0.00016285      -0.00023810       0.00040109
H       -6.08470505      -4.78083933       3.70538107       0.00032014      -0.00048555      -0.00023230
H       -4.61911880      -7.55666180       4.54162015       0.00003140      -0.00007578      -0.00006301
N       -5.12864145      -8.75420892       3.51176400       0.00052322      -0.00013353      -0.00018126
H       -4.41495087      -8.89221839       2.80231586      -0.00031596       0.00001039       0.00033173
H       -5.36426352      -9.65847659       3.90564416      -0.00007741       0.00040598      -0.00020748
H       -5.95039628      -8.39082580       3.03753432      -0.00008680      -0.00017825       0.00007255
