11
Properties=species:S:1:pos:R:3:forces:R:3 -1612.55411=T energy=-20590.1093283332 free_energy=-20590.1093283332 pbc="F F F"
S       12.21166059     -14.05964642     -33.28443925      -0.00004316      -0.00006546       0.00015940
O       12.46191842     -14.65384635     -34.57186845       0.00002187      -0.00002408       0.00012422
O       11.75092533     -12.70271299     -33.13149927      -0.00000682      -0.00011909      -0.00001180
O       11.13543002     -15.03399721     -32.55895272       0.00050937       0.00000101      -0.00025439
O       13.46784606     -14.24274226     -32.35030200      -0.00017063       0.00004674      -0.00013332
H       10.59553776     -14.49342276     -31.95759862      -0.00017615       0.00014568       0.00016315
H       13.73155026     -15.23440835     -32.36680275      -0.00002510      -0.00000927      -0.00002274
N       13.87262215     -16.88295951     -32.49588894       0.00023708       0.00012551       0.00009187
H       14.62517380     -17.34138432     -31.99402594      -0.00014567       0.00004685      -0.00000903
H       12.99175701     -17.27018253     -32.16978600      -0.00024572      -0.00016437       0.00015332
H       13.95423676     -17.12191055     -33.47972266       0.00004488       0.00001616      -0.00026083
