11
Properties=species:S:1:pos:R:3:forces:R:3 -1612.54143=T energy=-20590.176123259425 free_energy=-20590.176123259425 pbc="F F F"
S        8.86499120      -7.29889419     -41.47826155       0.00022523       0.00017607       0.00016972
O        7.90417651      -7.83700809     -42.41076041      -0.00024629       0.00000060      -0.00008202
O       10.02796634      -6.61142478     -41.99140202      -0.00034928      -0.00002950       0.00002515
O        8.11194101      -6.36798030     -40.40712502       0.00043675      -0.00038236      -0.00020763
O        9.29378405      -8.37876019     -40.42424217      -0.00009564       0.00010225      -0.00012964
H        7.75555665      -5.58303317     -40.86174202      -0.00013395       0.00029199       0.00015081
H        9.91868963      -9.02875797     -40.89406118       0.00004832      -0.00004178      -0.00016322
N       11.07395167      -9.87728770     -41.86242689       0.00043775      -0.00002229      -0.00057949
H       10.64339997     -10.28261435     -42.68852692       0.00043634      -0.00000468       0.00062057
H       11.59987811     -10.60615055     -41.39106631      -0.00037126       0.00000516      -0.00008732
H       11.73303683      -9.17177257     -42.18143387      -0.00038797      -0.00009528       0.00028293
