11
Properties=species:S:1:pos:R:3:forces:R:3 -1612.28334=T energy=-20590.153730354683 free_energy=-20590.153730354683 pbc="F F F"
S       -9.91095707      -5.71378083     -21.77886728       0.00015365       0.00022194       0.00008789
O      -10.22779154      -7.04956965     -21.32249704      -0.00015691      -0.00026631      -0.00007272
O      -10.91497030      -4.89183174     -22.39975354      -0.00005314      -0.00005007       0.00002801
O       -9.26723529      -4.91306950     -20.52365251       0.00019598       0.00012619      -0.00015807
O       -8.63853480      -5.72188581     -22.68967392       0.00008766      -0.00002524       0.00004637
H       -9.93169870      -4.86794369     -19.81419545      -0.00018515       0.00001796       0.00013533
H       -7.90842976      -6.27743687     -22.22553781      -0.00003374      -0.00009644      -0.00006385
N       -6.89193792      -7.10821252     -21.22388468      -0.00033978      -0.00030561      -0.00006936
H       -5.98817815      -7.39729853     -21.58164040       0.00007981       0.00003281      -0.00001433
H       -7.38441421      -7.93475233     -20.89734036       0.00007185       0.00010902      -0.00015819
H       -6.73813447      -6.51506156     -20.41384698       0.00017956       0.00023603       0.00023887
