11
Properties=species:S:1:pos:R:3:forces:R:3 -1612.30123=T energy=-20589.635975199322 free_energy=-20589.635975199322 pbc="F F F"
S       -3.89715046       1.13999461      -2.37933962      -0.00011773       0.00057389      -0.00019600
O       -5.06635860       0.71220418      -3.10026529       0.00024784      -0.00002956       0.00010240
O       -3.56848508       2.53669771      -2.23663536      -0.00000930      -0.00063443       0.00009352
O       -3.93818282       0.45231521      -0.93882197      -0.00007716      -0.00002649      -0.00013179
O       -2.60497912       0.36194738      -2.94240792      -0.00017047       0.00014921       0.00000662
H       -3.41558156       0.99351190      -0.32199035       0.00010410       0.00008528       0.00009108
H       -2.31325461       0.80292159      -3.75995966       0.00001034      -0.00009273       0.00003302
N       -5.64441074      -2.32051419      -2.86286424      -0.00029532      -0.00006344       0.00009117
H       -4.67389908      -2.61965393      -2.91619445       0.00022316      -0.00009125       0.00008054
H       -5.90634890      -2.41429978      -1.88460952       0.00018357       0.00018074      -0.00033589
H       -5.63894630      -1.32167792      -3.05870372      -0.00009910      -0.00005147       0.00016537
