11
Properties=species:S:1:pos:R:3:forces:R:3 -1612.55825=T energy=-20590.109326103055 free_energy=-20590.109326103055 pbc="F F F"
S        7.90286465     -13.30709116     -39.50494456      -0.00027169      -0.00036707       0.00018541
O        7.57706703     -14.67394246     -39.19069681       0.00000834       0.00003672      -0.00010413
O        7.75429852     -12.75779042     -40.82900049       0.00003551       0.00004303      -0.00006139
O        7.01317348     -12.40505467     -38.49067239       0.00013202       0.00034985      -0.00012124
O        9.36193615     -12.97141426     -39.01249941       0.00009115       0.00030579       0.00018486
H        6.81889767     -11.55940897     -38.92941528       0.00008377      -0.00029271       0.00009670
H        9.43722687     -13.25823985     -38.02999214      -0.00004227      -0.00004108      -0.00023066
N        9.25247591     -13.71386811     -36.44500601       0.00048029      -0.00038257       0.00011890
H       10.04873991     -13.62440466     -35.82346526      -0.00031316       0.00021148      -0.00017881
H        8.49462685     -13.14852607     -36.07316183      -0.00003791       0.00004897       0.00013092
H        8.93874182     -14.67968310     -36.42337024      -0.00016607       0.00008756      -0.00002060
