11
Properties=species:S:1:pos:R:3:forces:R:3 -1612.50847=T energy=-20590.10680958505 free_energy=-20590.10680958505 pbc="F F F"
S       -4.87603774      -7.50563298       3.83294170      -0.00007764      -0.00011862       0.00004290
O       -4.76621319      -6.94499666       2.51225787      -0.00002354      -0.00003117      -0.00002432
O       -4.40512074      -6.82016516       5.00980223       0.00012967       0.00010745       0.00014150
O       -6.45519949      -7.81910864       4.03928994       0.00001246      -0.00005001       0.00001451
O       -4.27093476      -8.96017724       3.85689498      -0.00011623       0.00010986      -0.00002861
H       -6.65093388      -7.77108586       4.99053557       0.00007685      -0.00000177      -0.00013869
H       -4.71218807      -9.49893057       3.10259299       0.00002219      -0.00003000       0.00003537
N       -5.65635098     -10.23153723       1.95668816      -0.00024905      -0.00020083       0.00006422
H       -5.25131697     -10.28741642       1.02765245      -0.00000492      -0.00009241       0.00002861
H       -5.95175091     -11.16348974       2.22918998       0.00020096       0.00034420      -0.00014016
H       -6.48826136      -9.65112073       1.89448645       0.00002931      -0.00003651       0.00000474
