11
Properties=species:S:1:pos:R:3:forces:R:3 -1612.30749=T energy=-20589.598832660704 free_energy=-20589.598832660704 pbc="F F F"
S       -2.34951844      -5.23250380       0.46013616      -0.00023564      -0.00048512       0.00063088
O       -1.91868506      -4.52324360      -0.71199583      -0.00026155       0.00053436      -0.00048518
O       -3.32277966      -4.72514947       1.39482552       0.00024742      -0.00020541      -0.00022745
O       -2.83835284      -6.68233171      -0.03994901      -0.00004870       0.00024134      -0.00023866
O       -1.05444719      -5.62124842       1.33763277       0.00026688       0.00020693       0.00033560
H       -3.38357590      -7.08074810       0.66037182       0.00015740       0.00029930       0.00026257
H       -0.29109775      -5.68591116       0.73832309      -0.00000905      -0.00022622      -0.00016901
N       -2.12755702      -1.94279414       2.21324500       0.00046055      -0.00008178      -0.00024030
H       -1.41018245      -2.24015302       2.86989834      -0.00018775       0.00017172       0.00044313
H       -2.78567455      -2.71780663       2.14874392      -0.00036597       0.00005623      -0.00040074
H       -1.66714382      -1.90469372       1.30700247      -0.00002354      -0.00051139       0.00008923
