11
Properties=species:S:1:pos:R:3:forces:R:3 -1612.49787=T energy=-20590.109327015387 free_energy=-20590.109327015387 pbc="F F F"
S       -0.77287455      -6.56508336     -28.97885934       0.00001896      -0.00000289      -0.00000875
O       -0.85085347      -7.96238033     -29.32298189       0.00002813      -0.00000954       0.00004727
O       -1.91937418      -5.69441570     -29.00417740      -0.00006765       0.00003099       0.00000130
O       -0.04322849      -6.45903944     -27.58586454       0.00001812       0.00002502       0.00002110
O        0.31927736      -5.87264341     -29.95953491      -0.00006701       0.00010866       0.00004628
H        0.11751448      -5.46477771     -27.38871627      -0.00004325      -0.00005406      -0.00003866
H        0.86635556      -6.57654865     -30.34756250       0.00008046      -0.00009600      -0.00006549
N        0.33629849      -3.81989633     -27.37191388      -0.00006997       0.00029515       0.00025466
H        0.87923327      -3.59738925     -28.20133945      -0.00013223       0.00005928       0.00014734
H        0.79817586      -3.40467529     -26.57028212      -0.00011905      -0.00019933      -0.00031519
H       -0.56962337      -3.37429870     -27.48345395       0.00035381      -0.00015721      -0.00008978
