11
Properties=species:S:1:pos:R:3:forces:R:3 -1612.55799=T energy=-20590.109326508536 free_energy=-20590.109326508536 pbc="F F F"
S        8.12454141     -11.24953024     -38.86530939       0.00001453       0.00039759      -0.00014947
O        7.89405886     -12.61101391     -39.27324498       0.00012982       0.00004721       0.00040442
O        8.42676249     -10.19811376     -39.80345736       0.00021103       0.00002432       0.00014648
O        6.79616815     -10.81288819     -38.04145655       0.00036144      -0.00091107       0.00014630
O        9.21725752     -11.20194928     -37.73046464      -0.00041694      -0.00028956      -0.00052237
H        6.67302918      -9.85483693     -38.15232254      -0.00026262       0.00070991      -0.00007696
H        8.94461700     -11.87105523     -37.00164260      -0.00004515      -0.00004061       0.00004147
N        8.22454511     -12.93243339     -35.94847225       0.00030793      -0.00012320       0.00046973
H        8.06338420     -13.80872585     -36.43613743      -0.00012656      -0.00011542      -0.00028378
H        8.69687806     -13.13719650     -35.07478213      -0.00013784       0.00027449      -0.00020239
H        7.31170396     -12.54254883     -35.73182885      -0.00003579       0.00002642       0.00002672
