10
Properties=species:S:1:pos:R:3:forces:R:3 -1708.39998=T energy=-21130.268706054136 free_energy=-21130.268706054136 pbc="F F F"
S      -10.29590160     -10.12441349     -28.00785100       0.00034720      -0.00022855      -0.00035470
O       -9.36664850     -11.16711788     -27.66637859      -0.00049412       0.00048280      -0.00016928
O      -10.37147687      -9.55494890     -29.33143231       0.00001240      -0.00023293       0.00044733
O      -11.73843705     -10.61222275     -27.54469027      -0.00008693      -0.00010565      -0.00008422
O      -10.05833840      -8.86093527     -27.03316095       0.00009897       0.00007392       0.00025544
H      -12.43458720     -10.00099497     -27.93763410       0.00001153       0.00002696       0.00008912
H      -10.08535272      -9.17548088     -26.11383610       0.00004058       0.00006127      -0.00013911
O      -13.28087852      -8.82920279     -28.83767952       0.00014427       0.00011797      -0.00004016
H      -12.58301823      -8.75223634     -29.50467866      -0.00011227       0.00005263       0.00012739
H      -13.21367690      -8.00890809     -28.33092818       0.00003844      -0.00024833      -0.00013196
