10
Properties=species:S:1:pos:R:3:forces:R:3 -1708.29793=T energy=-21130.009165261188 free_energy=-21130.009165261188 pbc="F F F"
S       -3.19563056      -9.85812977     -32.93155462       0.00004229       0.00004946       0.00006211
O       -1.80025036     -10.02344348     -32.59693175       0.00007272      -0.00003395       0.00003886
O       -3.76212343     -10.26793212     -34.18226299       0.00000501      -0.00000028      -0.00010836
O       -4.01178902     -10.54588446     -31.73075437      -0.00061334      -0.00018794      -0.00027174
O       -3.58825111      -8.31436661     -32.73705815      -0.00039877      -0.00025198      -0.00070029
H       -4.90375081     -10.76893260     -32.04835066       0.00053227       0.00014465       0.00032780
H       -3.06269989      -7.94525470     -32.00620850       0.00038251       0.00030476       0.00067102
O        0.91464434     -10.41503872     -32.11502641      -0.00026813       0.00019801      -0.00048369
H        0.47804505     -10.23616783     -31.27480319      -0.00006443      -0.00004074       0.00017107
H        0.16596927     -10.38157386     -32.72257980       0.00030981      -0.00018202       0.00029303
