10
Properties=species:S:1:pos:R:3:forces:R:3 -1708.36519=T energy=-21130.29795539338 free_energy=-21130.29795539338 pbc="F F F"
S      -10.27436468      -9.93030619     -27.80355363       0.00060388       0.00003914       0.00010366
O       -9.06748807      -9.28661529     -28.23312531      -0.00044727      -0.00010514       0.00003877
O      -11.43310666      -9.99826304     -28.67224664      -0.00014162       0.00010872      -0.00016969
O       -9.86199392     -11.41077203     -27.34893749      -0.00008738       0.00000635       0.00012782
O      -10.75391383      -9.38182036     -26.38539572       0.00004741      -0.00012112      -0.00009286
H      -10.65980028     -11.86017764     -27.01844329       0.00005031       0.00005323      -0.00001812
H      -11.40351096      -8.63090173     -26.53276243      -0.00001016      -0.00000768       0.00003838
O      -12.63216195      -7.58349985     -27.18837024      -0.00001299      -0.00001228       0.00000632
H      -12.17197080      -6.85058374     -27.61868667      -0.00005338      -0.00010227      -0.00004745
H      -12.81229880      -8.20329229     -27.91054123       0.00005153       0.00014108       0.00001324
