10
Properties=species:S:1:pos:R:3:forces:R:3 -1708.28245=T energy=-21130.05769756536 free_energy=-21130.05769756536 pbc="F F F"
S       -8.38494897     -13.81248217     -19.54058897       0.00003161      -0.00003889       0.00013428
O       -8.75035260     -15.14635422     -19.90539527      -0.00014096       0.00003469      -0.00014544
O       -7.41040957     -13.05799865     -20.30676209       0.00023729       0.00009072       0.00008455
O       -9.72450451     -12.96414785     -19.39325817       0.00023592       0.00009908       0.00024451
O       -7.94590549     -13.75122684     -17.99253199      -0.00017917       0.00006735       0.00002486
H       -9.49461872     -12.03131826     -19.23659474       0.00011623       0.00030681      -0.00049306
H       -7.05482424     -14.13367437     -17.90445454       0.00016038      -0.00073255       0.00025320
O       -5.48440305     -11.68723477     -21.73653119      -0.00001465      -0.00020738      -0.00006111
H       -6.19314104     -12.34179872     -21.70408189       0.00017794      -0.00036933       0.00004900
H       -5.46028412     -11.40531860     -20.81521977      -0.00062448       0.00074945      -0.00009075
