10
Properties=species:S:1:pos:R:3:forces:R:3 -1708.21371=T energy=-21130.00916292967 free_energy=-21130.00916292967 pbc="F F F"
S       -4.16710482       3.03126729       1.80091243       0.00002021       0.00004584      -0.00003170
O       -4.45799354       1.81298406       2.49682077      -0.00003183       0.00006568      -0.00012529
O       -4.98964884       3.55604849       0.73579723      -0.00004670       0.00000978      -0.00004911
O       -3.99649290       4.16708845       2.92163564      -0.00019503       0.00013222      -0.00007111
O       -2.67948376       2.95436442       1.19922632      -0.00003478       0.00007875       0.00010970
H       -3.99650100       5.03877142       2.48944306       0.00024123      -0.00012844      -0.00001816
H       -2.16522310       2.31468145       1.72128351      -0.00018294       0.00010833      -0.00020911
O       -6.68693579       4.42567316      -1.29473950       0.00047499      -0.00008226       0.00025362
H       -5.85291608       4.90215403      -1.37205208      -0.00003392      -0.00033206       0.00046615
H       -6.50527158       3.85736034      -0.53659773      -0.00021116       0.00010229      -0.00032496
