10
Properties=species:S:1:pos:R:3:forces:R:3 -1708.32715=T energy=-21130.267773954114 free_energy=-21130.267773954114 pbc="F F F"
S       -1.52639021      -9.60291942     -33.71250480      -0.00045224       0.00043312      -0.00014441
O       -0.68601067     -10.67195903     -34.18139984       0.00004220      -0.00000572       0.00000751
O       -1.84640590      -8.46093992     -34.52684837       0.00029534      -0.00039291       0.00018415
O       -2.89819219     -10.32533670     -33.24529947      -0.00004974       0.00019068       0.00005451
O       -1.00301397      -9.03780545     -32.31873443       0.00001079       0.00018638      -0.00010890
H       -3.44820355      -9.66284287     -32.79358759       0.00010980      -0.00023406      -0.00001058
H       -0.88059991      -9.79586603     -31.67074520       0.00000991      -0.00018721       0.00006241
O       -0.95920728     -11.21895200     -30.74382524      -0.00027506       0.00063097       0.00040936
H       -0.36857836     -11.80998650     -31.23022294       0.00063337      -0.00058056      -0.00034761
H       -1.84127446     -11.49174997     -31.03111887      -0.00032413      -0.00004075      -0.00010651
