10
Properties=species:S:1:pos:R:3:forces:R:3 -1708.28806=T energy=-21130.009164551597 free_energy=-21130.009164551597 pbc="F F F"
S        1.64831569       2.79239957     -23.88329832      -0.00004490       0.00011043       0.00048927
O        1.55493557       2.48301572     -25.29110538       0.00001140      -0.00003231      -0.00045037
O        1.57094732       4.12411894     -23.36016760       0.00005147      -0.00009000      -0.00005639
O        0.53977118       1.87720214     -23.16595533      -0.00009599      -0.00002182       0.00025837
O        3.00435613       2.15488328     -23.30890463      -0.00013971       0.00016060       0.00008916
H        0.31992420       2.27214921     -22.30463117       0.00015333      -0.00000951      -0.00026899
H        3.19472388       1.33184231     -23.79157768       0.00007270      -0.00012987      -0.00006541
O        1.35938097       2.06359559     -28.03736990       0.00004468       0.00028402      -0.00033847
H        1.48417210       2.65442228     -27.28498738       0.00004335       0.00028291       0.00017175
H        1.22668170       1.22073285     -27.58954725      -0.00009632      -0.00055441       0.00017129
