10
Properties=species:S:1:pos:R:3:forces:R:3 -1708.39685=T energy=-21130.26870656099 free_energy=-21130.26870656099 pbc="F F F"
S        0.65100384       0.81445961     -30.15175206      -0.00002348       0.00001384      -0.00018748
O        1.25417544       0.50245597     -31.41910493      -0.00024498       0.00027162       0.00062025
O       -0.61006951       1.50690159     -30.04183736       0.00022018      -0.00021768      -0.00009328
O        0.60273699      -0.53599417     -29.31072689       0.00036326      -0.00007480      -0.00026527
O        1.67914738       1.69823394     -29.27726092      -0.00008623      -0.00010305      -0.00012060
H        0.01740737      -0.40044912     -28.50348393      -0.00027271       0.00010163       0.00006119
H        2.53084970       1.23102482     -29.24355294       0.00005348      -0.00007746      -0.00006857
O       -1.08297373       0.18815230     -27.34511303       0.00005531       0.00068723       0.00001896
H       -1.48151343       0.82191331     -27.95939821       0.00011209      -0.00035983       0.00019053
H       -0.56310278       0.73813330     -26.74390223      -0.00017689      -0.00024159      -0.00015527
