10
Properties=species:S:1:pos:R:3:forces:R:3 -1708.39238=T energy=-21130.244473176856 free_energy=-21130.244473176856 pbc="F F F"
S       -9.09775624      -9.72007063     -27.38551625       0.00031832      -0.00032591       0.00016505
O       -7.80298028     -10.11460784     -27.87110184      -0.00043654       0.00000024       0.00005651
O       -9.45104295      -8.33947675     -27.14448899      -0.00017607      -0.00022250      -0.00007468
O      -10.19065293     -10.38478991     -28.33308056       0.00011227       0.00004444       0.00040123
O       -9.37181762     -10.46573199     -25.98346706       0.00038039       0.00004184      -0.00005838
H      -11.03894087      -9.84242886     -28.30363650       0.00006917       0.00000436      -0.00007623
H       -9.03873365     -11.37703767     -26.05221332       0.00017232      -0.00004746      -0.00001728
O      -12.15494298      -8.55193051     -28.24848514      -0.00006705      -0.00011935      -0.00005890
H      -11.60147405      -8.06632536     -27.61824427      -0.00033920       0.00008669      -0.00008161
H      -12.02529067      -8.08015009     -29.08195512      -0.00003392       0.00053744      -0.00025572
