10
Properties=species:S:1:pos:R:3:forces:R:3 -1708.39590=T energy=-21130.24446937547 free_energy=-21130.24446937547 pbc="F F F"
S      -11.58832214       8.19312253      -8.00392668       0.00001150       0.00002167      -0.00015912
O      -11.20393933       7.19399529      -8.97515601      -0.00005537       0.00019228      -0.00017262
O      -12.59484611       9.18503830      -8.27080505      -0.00033009       0.00010371       0.00008038
O      -12.02810027       7.35427079      -6.70020506       0.00045913      -0.00028992      -0.00022840
O      -10.28729497       8.95126014      -7.48795066       0.00005221       0.00024177      -0.00017723
H      -12.43548907       7.96878023      -6.06567378       0.00007875      -0.00004593       0.00018543
H       -9.46870431       8.40144364      -7.69476269      -0.00000318       0.00008472      -0.00008123
O       -8.33276866       7.37998486      -8.45336491       0.00000304      -0.00009310       0.00028402
H       -8.05559953       7.86381462      -9.24278523      -0.00003624      -0.00015625       0.00009909
H       -9.03537845       6.79468047      -8.77450948      -0.00017957      -0.00005893       0.00016970
