10
Properties=species:S:1:pos:R:3:forces:R:3 -1708.27167=T energy=-21130.057799037044 free_energy=-21130.057799037044 pbc="F F F"
S        0.19297206       3.40565681     -24.78877972      -0.00001685       0.00034550       0.00004352
O       -0.49324913       2.19593842     -25.12290253       0.00004530      -0.00003684       0.00001213
O        1.24129679       3.94095595     -25.63760475      -0.00016767      -0.00013423       0.00006396
O       -0.90314342       4.52905434     -24.51985543       0.00018406       0.00012838      -0.00003941
O        0.76690965       3.33130651     -23.28615386      -0.00006768      -0.00013278       0.00006819
H       -0.45699242       5.38517913     -24.39511321      -0.00007029      -0.00022858      -0.00004724
H        1.54983522       2.75243529     -23.27817991       0.00001856       0.00002407      -0.00003231
O        3.28622040       4.89542310     -27.22877248      -0.00032252      -0.00004594       0.00014847
H        3.36898814       5.25973617     -26.34033007      -0.00011557      -0.00021690      -0.00027639
H        2.49903670       4.34678203     -27.12302835       0.00051251       0.00029740       0.00005896
