10
Properties=species:S:1:pos:R:3:forces:R:3 -1708.24790=T energy=-21130.29688066533 free_energy=-21130.29688066533 pbc="F F F"
S        1.09319518      -4.69947841     -36.33603205       0.00005643      -0.00008094       0.00033765
O        1.86519922      -5.75450869     -36.95631128      -0.00001812      -0.00001359       0.00001687
O        0.43780262      -3.69849247     -37.12833338      -0.00009120       0.00014186      -0.00015415
O        0.08297899      -5.35649270     -35.29139430       0.00003181      -0.00001991      -0.00006726
O        2.01438023      -3.91301670     -35.28514240       0.00007755      -0.00025968       0.00001485
H       -0.42725051      -6.08595237     -35.75150374       0.00006074       0.00005179      -0.00000231
H        2.48805497      -4.56789932     -34.74251869      -0.00011101       0.00017982      -0.00012738
O       -0.98974989      -7.39334418     -36.76307164       0.00012006      -0.00003111      -0.00012591
H       -0.10392286      -7.64375256     -37.06030976      -0.00018908       0.00009987       0.00003870
H       -1.36653982      -6.93526871     -37.52634398       0.00006275      -0.00006805       0.00006898
