10
Properties=species:S:1:pos:R:3:forces:R:3 -1708.29726=T energy=-21130.0091631831 free_energy=-21130.0091631831 pbc="F F F"
S       -2.37289131      -0.21842725     -14.41370835      -0.00000935      -0.00001378      -0.00017828
O       -1.35642021       0.26821093     -13.52878454       0.00001001       0.00000980       0.00001347
O       -2.48382176       0.18311967     -15.79675935       0.00001723      -0.00006683       0.00013399
O       -2.30356434      -1.82043779     -14.35070518      -0.00010061      -0.00002861      -0.00006479
O       -3.81623784       0.06150366     -13.76607399       0.00001022       0.00001356       0.00018030
H       -2.83666071      -2.18769122     -15.07703619       0.00009455       0.00001845       0.00009696
H       -3.71514729       0.13790855     -12.80163958      -0.00001067       0.00002890      -0.00014996
O       -2.55177613       1.05935569     -18.43944624      -0.00021077      -0.00003473       0.00024311
H       -3.40054620       0.65388173     -18.23019616       0.00035580       0.00010247      -0.00009465
H       -2.09150293       0.96901250     -17.59639366      -0.00015638      -0.00002930      -0.00018029
