10
Properties=species:S:1:pos:R:3:forces:R:3 -1708.38219=T energy=-21130.244467804227 free_energy=-21130.244467804227 pbc="F F F"
S      -10.61854800     -11.45107694     -26.92695839      -0.00000914      -0.00008911      -0.00006599
O      -10.45896890     -12.84764501     -26.62299105       0.00031872      -0.00003791       0.00007379
O      -10.41433897     -10.91536215     -28.25382788       0.00001114      -0.00014865      -0.00016505
O      -12.04908432     -11.00066152     -26.39372961      -0.00004303      -0.00010370      -0.00024867
O       -9.62509055     -10.60431134     -25.98205751      -0.00022750       0.00012203       0.00014945
H      -12.37953554     -10.21383522     -26.92931519       0.00028239       0.00008996       0.00020339
H       -9.60841456     -11.02344993     -25.10441261      -0.00045356       0.00019682      -0.00018487
O      -12.72875767      -9.12874201     -28.19854355       0.00040964      -0.00022586       0.00034468
H      -11.85242266      -9.26447968     -28.58965799       0.00006415      -0.00018322      -0.00030947
H      -13.32181394      -9.61803122     -28.78418470      -0.00035273       0.00037994       0.00020257
