10
Properties=species:S:1:pos:R:3:forces:R:3 -1708.29252=T energy=-21130.244368562693 free_energy=-21130.244368562693 pbc="F F F"
S        1.48750477       4.29193112     -15.84329059       0.00027692       0.00027398       0.00043844
O        2.68633708       4.86086352     -15.29083395      -0.00055957      -0.00021756      -0.00027966
O        1.26232480       4.18520583     -17.26657269      -0.00015020       0.00005504       0.00030136
O        1.28011427       2.86595903     -15.16450212      -0.00032991      -0.00034747      -0.00039023
O        0.21165062       5.10489758     -15.28828715       0.00031295      -0.00000092       0.00024163
H        0.69215589       2.29853323     -15.75201099       0.00030889       0.00015469       0.00031184
H        0.28222379       5.16078145     -14.31987783       0.00001058      -0.00002744      -0.00065553
O       -0.02460095       1.54256659     -17.10858461      -0.00042177       0.00038164       0.00059798
H        0.68198826       1.00226098     -17.48646721       0.00048592      -0.00042556      -0.00048707
H        0.01221162       2.36435725     -17.62090928       0.00006631       0.00015356      -0.00007874
