10
Properties=species:S:1:pos:R:3:forces:R:3 -1708.29993=T energy=-21130.26773578819 free_energy=-21130.26773578819 pbc="F F F"
S       -7.11822918       4.65012015      -9.01916166       0.00010288       0.00019128      -0.00003424
O       -6.72710222       4.07177404      -7.76108468       0.00011063      -0.00011796       0.00005484
O       -8.48940777       4.69873088      -9.45196877      -0.00030208       0.00003958      -0.00006688
O       -6.51373157       6.15153893      -8.99307290       0.00003040       0.00010532      -0.00016995
O       -6.28273751       4.01757233     -10.21861963       0.00006497      -0.00000005      -0.00001321
H       -6.62877918       6.53744879      -9.87785119      -0.00003077      -0.00023078       0.00019943
H       -5.30242529       4.05333104     -10.00098211       0.00006209       0.00002522       0.00003403
O       -3.74093429       4.39536423      -9.42368960      -0.00002134       0.00051829      -0.00046960
H       -3.87755650       5.33582479      -9.24533929       0.00004417      -0.00029806      -0.00009474
H       -3.79455649       3.98895635      -8.54784285      -0.00006106      -0.00023279       0.00056040
