10
Properties=species:S:1:pos:R:3:forces:R:3 -1708.23502=T energy=-21130.244479867295 free_energy=-21130.244479867295 pbc="F F F"
S       -6.84492909      -5.06469928     -24.11489268       0.00023532      -0.00010923      -0.00013663
O       -5.73264416      -5.98379781     -24.03024357      -0.00013840      -0.00002313       0.00005805
O       -7.51642054      -4.77377128     -25.35284829      -0.00000262       0.00004226       0.00034118
O       -7.92747721      -5.62956694     -23.06327283       0.00001071       0.00048219      -0.00027990
O       -6.43156493      -3.67745486     -23.45262491       0.00001538      -0.00033294       0.00021275
H       -8.75245264      -5.12645328     -23.17501844       0.00020450      -0.00015759       0.00007216
H       -5.63727713      -3.81352116     -22.84809396      -0.00032468       0.00010445      -0.00026875
O       -4.15858158      -4.34703434     -22.18390159       0.00013614       0.00015041      -0.00007778
H       -3.48347740      -4.02121435     -22.79395449      -0.00014932      -0.00007188       0.00015111
H       -4.32249689      -5.25451322     -22.48215705       0.00001311      -0.00008446      -0.00007211
