10
Properties=species:S:1:pos:R:3:forces:R:3 -1708.39241=T energy=-21130.247789607994 free_energy=-21130.247789607994 pbc="F F F"
S       -7.76007576       2.38671857     -27.08019427       0.00005450       0.00010212       0.00000856
O       -8.05114301       2.35082408     -28.49118689      -0.00002640       0.00001192       0.00009370
O       -7.08991923       3.51710114     -26.48651665      -0.00001049      -0.00008810      -0.00008416
O       -9.14787394       2.15759338     -26.30951182       0.00000066       0.00004113       0.00041953
O       -7.02268096       1.03611609     -26.66554912       0.00010061       0.00002040      -0.00012909
H       -9.00544147       2.33794347     -25.36345604      -0.00007877      -0.00006972      -0.00041827
H       -6.37785823       0.78828364     -27.39473580      -0.00006317       0.00006544       0.00014894
O       -5.73214641       0.38665225     -28.95862297      -0.00052148      -0.00049618      -0.00033814
H       -6.25493998      -0.37987748     -29.22931572       0.00043332       0.00070991       0.00009103
H       -6.16823371       1.13089954     -29.39798365       0.00011138      -0.00029695       0.00020797
