10
Properties=species:S:1:pos:R:3:forces:R:3 -1708.22767=T energy=-21130.00856535168 free_energy=-21130.00856535168 pbc="F F F"
S        2.15125510       5.14122501     -27.33003661       0.00045116       0.00034702      -0.00032113
O        1.79771163       3.93534200     -28.04182902      -0.00007546       0.00018144      -0.00005627
O        3.22410894       6.00513044     -27.72477282      -0.00029898      -0.00014985      -0.00003424
O        0.79563492       5.99724784     -27.22413243       0.00013256       0.00001128       0.00000757
O        2.40995124       4.76571541     -25.79186107      -0.00008079      -0.00017169       0.00059724
H        1.02848664       6.93163691     -27.08676076      -0.00012469      -0.00016554      -0.00005003
H        1.81719359       4.03590775     -25.54193989       0.00005957       0.00007715      -0.00005174
O        1.40946295       1.64137955     -29.56176471       0.00006766       0.00005250       0.00057236
H        1.41955200       2.60305264     -29.48619922       0.00011081      -0.00061542       0.00009516
H        1.66997924       1.38458684     -28.67025274      -0.00024198       0.00043319      -0.00075895
