10
Properties=species:S:1:pos:R:3:forces:R:3 -1708.40194=T energy=-21130.244437190395 free_energy=-21130.244437190395 pbc="F F F"
S       -3.33185352       6.33136938      -7.93805970      -0.00003966       0.00037843      -0.00006287
O       -3.36530153       5.48609244      -9.11019595       0.00018929       0.00058043      -0.00032437
O       -3.83772799       7.67764002      -7.94039148      -0.00019383      -0.00007904       0.00037819
O       -4.10987079       5.49438756      -6.80191322       0.00030209      -0.00024682      -0.00045565
O       -1.84805967       6.37247956      -7.36347182      -0.00007632       0.00046090      -0.00015809
H       -4.25509585       6.07956056      -6.03853406       0.00018115      -0.00061977      -0.00007313
H       -1.31745541       5.59996867      -7.73387546       0.00013409       0.00049464      -0.00000913
O       -0.67568708       4.40027051      -8.76042064      -0.00003806      -0.00006199       0.00044823
H       -0.20863518       4.89099227      -9.44974171      -0.00024629      -0.00046927      -0.00039382
H       -1.54768584       4.22907196      -9.14738138      -0.00021240      -0.00043735       0.00065052
