10
Properties=species:S:1:pos:R:3:forces:R:3 -1708.22935=T energy=-21130.008565782504 free_energy=-21130.008565782504 pbc="F F F"
S       -3.97303479       6.42256102      -7.98130823       0.00003570       0.00009037       0.00002282
O       -3.20341368       5.20147744      -7.93186794      -0.00008488       0.00007463      -0.00002217
O       -4.94886765       6.70024006      -8.99313520       0.00004244      -0.00005031       0.00000411
O       -4.65743160       6.56430914      -6.53451827      -0.00022896       0.00021863      -0.00011891
O       -2.95686899       7.66406389      -7.97420167      -0.00009456      -0.00006874      -0.00001669
H       -5.43765502       7.13956454      -6.61521506       0.00026804      -0.00021037       0.00007950
H       -2.17779430       7.43019809      -7.44055182       0.00002164      -0.00002918       0.00003135
O       -1.81992334       2.80067283      -8.14634389       0.00028001       0.00057546      -0.00014653
H       -1.19694717       3.52935864      -8.24389964      -0.00041664      -0.00053143       0.00011441
H       -2.64747159       3.28150537      -8.02559224       0.00017692      -0.00006894       0.00005219
