14
Properties=species:S:1:pos:R:3:forces:R:3 -2771.24343=T energy=-38102.86317253701 free_energy=-38102.86317253701 pbc="F F F"
S      -13.57170128       4.66978234      -1.15775642      -0.00005565       0.00002123      -0.00000233
O      -12.67787426       3.67979235      -1.69344757      -0.00027311       0.00047147       0.00006616
O      -14.95005279       4.75677882      -1.55765711       0.00017691      -0.00001889       0.00027057
O      -13.51232501       4.44150657       0.45446878       0.00002742      -0.00019015      -0.00068712
O      -12.95874233       6.11825071      -1.26571135       0.00000073      -0.00064309       0.00046311
H      -14.06661229       5.12062966       0.88057933      -0.00000499       0.00023795       0.00000468
H      -12.07616377       6.16387095      -0.81305565      -0.00000165       0.00013162      -0.00008377
S      -10.18060851       5.93638939       1.09918726      -0.00060321       0.00012344       0.00022815
O       -9.24927552       4.89635138       0.76018362       0.00049186      -0.00027657      -0.00013360
O      -10.79550913       6.73027124       0.05699786       0.00041234      -0.00029910       0.00008053
O      -11.31427399       5.36771126       2.05120769      -0.00015865      -0.00013329      -0.00039685
O       -9.53226397       6.99368249       2.09071546      -0.00012729       0.00056845      -0.00015562
H      -11.85350888       4.73956735       1.52382929       0.00024417       0.00025316       0.00030295
H       -9.10301733       6.52261377       2.82598703      -0.00012890      -0.00024609       0.00004327
