14
Properties=species:S:1:pos:R:3:forces:R:3 -2771.16314=T energy=-38103.05860228412 free_energy=-38103.05860228412 pbc="F F F"
S       11.89500095       2.63614136     -16.42501988      -0.00014608       0.00046233       0.00013111
O       12.80872591       1.50235905     -16.53870444       0.00023508      -0.00018096      -0.00000322
O       12.38567885       3.95637961     -16.67457597       0.00006978      -0.00015640      -0.00000507
O       10.59733102       2.30707547     -17.25800806      -0.00023183      -0.00009048       0.00020672
O       11.25907564       2.61219034     -14.96549256       0.00000530       0.00013707      -0.00000742
H       10.83435711       2.16543374     -18.20811919       0.00006656       0.00004473      -0.00024949
H       10.76469703       1.78217363     -14.85049994      -0.00000960      -0.00015881      -0.00004923
S       12.42153119       0.82160949     -20.07053225       0.00012639       0.00026794       0.00005569
O       12.51799843      -0.12134434     -21.14515041      -0.00007233      -0.00010026      -0.00013828
O       11.15546537       1.45611418     -19.75385835       0.00005198      -0.00012666       0.00001585
O       13.03854221       0.16142696     -18.78318180      -0.00005022       0.00007786       0.00013459
O       13.40498977       2.06450637     -20.32146978      -0.00001062      -0.00004120      -0.00002521
H       12.98427979       0.77651222     -18.00163512       0.00000391      -0.00011524      -0.00007275
H       14.31484635       1.73047111     -20.37543138      -0.00003831      -0.00002003       0.00000675
