14
Properties=species:S:1:pos:R:3:forces:R:3 -2771.10428=T energy=-38102.74688056535 free_energy=-38102.74688056535 pbc="F F F"
S      -12.70548958       7.36990130      -2.87866978      -0.00016685      -0.00022509      -0.00001138
O      -12.29710139       6.31458958      -2.00550180      -0.00011134       0.00060189      -0.00024998
O      -12.27107694       7.38763590      -4.27024627      -0.00009009      -0.00000316       0.00030589
O      -14.29395738       7.47299423      -2.82028548       0.00042245      -0.00050110      -0.00009106
O      -12.36732072       8.81124838      -2.26247762      -0.00026098      -0.00002381      -0.00012045
H      -14.56959753       8.29282574      -3.26609205      -0.00005890      -0.00018556      -0.00003701
H      -11.46649243       9.06286649      -2.56128980      -0.00028407       0.00009424       0.00005716
S       -9.03020351       9.10308022      -5.50946652      -0.00014185       0.00050756      -0.00007036
O       -8.34100908       7.83895829      -5.62698371      -0.00003874      -0.00037551       0.00001965
O       -9.59535932       9.75187150      -6.65820512      -0.00011313      -0.00006735       0.00030637
O      -10.10772576       8.99521308      -4.35061411       0.00002360       0.00029546       0.00028807
O       -8.04491973      10.16368577      -4.81851888       0.00025639      -0.00003077      -0.00008830
H      -10.78988610       8.31821460      -4.60902811       0.00000967       0.00028188       0.00009411
H       -7.53499496       9.70350332      -4.12842461       0.00055376      -0.00036846      -0.00040243
