14
Properties=species:S:1:pos:R:3:forces:R:3 -2771.45103=T energy=-38103.01998577048 free_energy=-38103.01998577048 pbc="F F F"
S      -10.85048043       1.83547560      -2.86315613      -0.00009990       0.00008388      -0.00022634
O      -12.17374087       1.72371603      -3.39930299      -0.00011921       0.00002953      -0.00005174
O      -10.41618927       0.96104790      -1.78858074       0.00014687      -0.00040102       0.00043261
O       -9.82988124       1.77678898      -4.05957176      -0.00027919      -0.00003351      -0.00021198
O      -10.60051133       3.30435123      -2.26868725       0.00011235       0.00010282       0.00008006
H       -8.89545922       1.82587135      -3.73426338       0.00025974       0.00005560       0.00004945
H      -10.66281408       3.94691333      -2.99328039      -0.00002202       0.00009958      -0.00009829
S       -6.82815738       1.27177896      -2.02612394       0.00027291      -0.00016063       0.00017825
O       -7.28932349       1.54706108      -3.37500974      -0.00013632       0.00021565      -0.00058043
O       -5.53565792       0.69608140      -1.80481066       0.00000864      -0.00011998       0.00010371
O       -6.94861503       2.69524810      -1.29627067      -0.00009567       0.00031957      -0.00024368
O       -7.89017368       0.40479007      -1.25351233       0.00003406      -0.00018372       0.00021244
H       -6.86345287       2.56110992      -0.33890702       0.00006156      -0.00005849       0.00041655
H       -8.80684209       0.75181018      -1.39729729      -0.00014402       0.00005084      -0.00006060
