14
Properties=species:S:1:pos:R:3:forces:R:3 -2771.08033=T energy=-38102.69549210194 free_energy=-38102.69549210194 pbc="F F F"
S      -13.01734376       5.54740839      -3.58478047      -0.00001407       0.00025615      -0.00017091
O      -13.12063071       4.13762985      -3.80951710       0.00002894      -0.00016344       0.00006507
O      -12.43621096       6.45835077      -4.54603161      -0.00002408      -0.00002539       0.00006711
O      -14.48403100       6.06894484      -3.21208005       0.00000021      -0.00001575       0.00004217
O      -12.22395347       5.82830895      -2.21794831      -0.00002080      -0.00011054      -0.00002253
H      -14.43382670       7.00978516      -2.97002564       0.00002193       0.00001639      -0.00000416
H      -12.32953817       5.05911251      -1.63346187       0.00000775       0.00006368      -0.00001164
S       -9.12660401       6.76193563      -6.26312563      -0.00010862       0.00048588      -0.00022234
O       -8.65975683       5.48330152      -5.77802336       0.00012159      -0.00034666      -0.00005054
O       -9.72123586       6.88260766      -7.56456421       0.00011480      -0.00021124       0.00001216
O      -10.03312996       7.44211992      -5.16025353      -0.00008155       0.00013238       0.00028265
O       -7.90977802       7.80487149      -6.22152714      -0.00002000      -0.00002672      -0.00004666
H      -10.83444160       6.89064182      -4.98508944      -0.00006873      -0.00005206       0.00001723
H       -7.42156251       7.67749191      -5.38855030       0.00004256      -0.00000226       0.00004228
