14
Properties=species:S:1:pos:R:3:forces:R:3 -2771.50971=T energy=-38103.28912830873 free_energy=-38103.28912830873 pbc="F F F"
S       -6.04553593      -5.32026746     -17.74279692       0.00001359      -0.00003947       0.00053121
O       -5.71781229      -6.08352362     -16.57962474      -0.00001451      -0.00043881      -0.00020659
O       -4.97504183      -4.67853447     -18.50568307       0.00011110      -0.00052333      -0.00051904
O       -6.86004664      -6.24893815     -18.72877565      -0.00014204       0.00053340       0.00030246
O       -7.08799058      -4.20876904     -17.33022184       0.00014098       0.00021943       0.00047135
H       -7.09220219      -5.75634733     -19.55826032       0.00022389      -0.00018473      -0.00051287
H       -7.31772763      -3.63976000     -18.11023801      -0.00028165      -0.00019988      -0.00012581
S       -7.18391156      -3.39399604     -20.71976440       0.00001337       0.00015726       0.00005108
O       -7.75362964      -2.75530147     -19.55406013      -0.00010285       0.00019383      -0.00034904
O       -7.54634655      -4.77799299     -20.97984642       0.00006792       0.00034946       0.00019830
O       -7.56079503      -2.48230883     -21.95879699      -0.00006356      -0.00048892       0.00024952
O       -5.62347293      -3.25491336     -20.71786699      -0.00012353       0.00005083      -0.00010177
H       -7.12969008      -2.82621662     -22.76066971       0.00017145      -0.00025441      -0.00019512
H       -5.27001383      -3.77599550     -19.94803363      -0.00001429       0.00062518       0.00020601
