14
Properties=species:S:1:pos:R:3:forces:R:3 -2771.43815=T energy=-38103.058601675904 free_energy=-38103.058601675904 pbc="F F F"
S       -4.22617753      -3.07835892      -3.44984870       0.00067353       0.00009181      -0.00015119
O       -3.18917344      -3.06052236      -4.46479828      -0.00048065      -0.00005476       0.00037313
O       -5.57872327      -2.74010227      -3.78072182      -0.00013793      -0.00009450      -0.00007486
O       -4.14533689      -4.57061451      -2.86538726       0.00001669       0.00008106      -0.00013559
O       -3.79341812      -2.21026610      -2.21172071      -0.00009534      -0.00004472      -0.00003759
H       -4.69337739      -4.61752101      -2.06552600      -0.00003877       0.00007214       0.00004312
H       -2.85182808      -2.40144776      -1.94915872       0.00003972      -0.00005146      -0.00002883
S       -0.27436990      -2.98022190      -2.33927394       0.00000095       0.00019508       0.00009484
O       -1.28034011      -2.37229723      -1.47223949      -0.00017631       0.00004900       0.00013053
O        0.02873136      -4.37011263      -2.18963465       0.00015765      -0.00020552      -0.00003207
O       -0.61167897      -2.59313869      -3.83007167       0.00031833       0.00010055      -0.00001314
O        1.07927663      -2.15804077      -2.17537470      -0.00010943       0.00020458      -0.00009575
H       -1.50836660      -2.93453382      -4.07163664      -0.00028504      -0.00006061      -0.00009074
H        0.92446524      -1.23768338      -2.45024976       0.00011672      -0.00028274       0.00001814
