14
Properties=species:S:1:pos:R:3:forces:R:3 -2771.00621=T energy=-38103.09384711981 free_energy=-38103.09384711981 pbc="F F F"
S       -1.68351000      -6.20815482       0.84063308       0.00039592      -0.00016813      -0.00002186
O       -0.54884144      -6.28504505      -0.06060637      -0.00033510       0.00007176       0.00031579
O       -2.67328726      -5.18354334       0.68587847      -0.00009024       0.00025249      -0.00017568
O       -2.35395731      -7.66093653       0.71745644       0.00018484      -0.00012290      -0.00019174
O       -1.19430233      -6.19244934       2.33579055       0.00008567      -0.00005044      -0.00004381
H       -3.01338674      -7.75579616       1.42359611      -0.00017883      -0.00000658       0.00016600
H       -0.47833086      -6.86923120       2.48774779      -0.00009328       0.00006727      -0.00003257
S        1.62659504      -8.37862149       1.90235992       0.00038547      -0.00044489      -0.00031986
O        1.27130894      -9.69382160       1.44193771      -0.00022826       0.00023699       0.00028545
O        0.80090886      -7.78889134       2.95200503      -0.00009468      -0.00015450       0.00007200
O        3.14135248      -8.34368530       2.39097515       0.00006554      -0.00022866       0.00055590
O        1.81185562      -7.35593156       0.73940080       0.00010467       0.00020950      -0.00003231
H        3.25954557      -8.97852863       3.12063651      -0.00004969       0.00034019      -0.00047801
H        0.93611406      -7.11409838       0.34301410      -0.00015207      -0.00000194      -0.00009941
