14
Properties=species:S:1:pos:R:3:forces:R:3 -2771.39510=T energy=-38103.10349585025 free_energy=-38103.10349585025 pbc="F F F"
S      -12.02134418       3.73472356      -6.01496264       0.00004495       0.00033399       0.00037444
O      -12.12574433       3.06469287      -7.27505585       0.00000042      -0.00031734      -0.00016081
O      -12.65923456       5.03527225      -5.83860823      -0.00014305       0.00008380       0.00003028
O      -12.57580060       2.74795432      -4.89257677       0.00000405       0.00007275       0.00028253
O      -10.52845862       3.84422948      -5.51442368       0.00022140       0.00014617      -0.00015803
H      -12.34895856       3.10939685      -4.01846575      -0.00002804      -0.00016694      -0.00055119
H      -10.05270294       4.55491475      -6.01640355      -0.00010731      -0.00012274       0.00023337
S       -9.89737416       7.18238757      -6.83921809       0.00010070       0.00029226      -0.00019014
O       -9.18100750       5.95426423      -6.51066462       0.00003946      -0.00033665      -0.00003546
O      -10.20114043       7.47571454      -8.20647046      -0.00008005      -0.00007826       0.00011373
O      -11.16775095       7.27822534      -5.90743974       0.00004302      -0.00008590      -0.00006592
O       -9.07683014       8.41479933      -6.24866186      -0.00007066      -0.00002889       0.00051244
H      -11.74044038       6.47794779      -6.02982148      -0.00003622       0.00010483       0.00003910
H       -9.01803703       8.31732015      -5.28263666       0.00001121       0.00010283      -0.00042442
