14
Properties=species:S:1:pos:R:3:forces:R:3 -2771.24779=T energy=-38102.86317284112 free_energy=-38102.86317284112 pbc="F F F"
S       -0.96793408      -4.78704224      -1.27998540       0.00016273      -0.00007451      -0.00022357
O       -0.50782237      -5.14979340      -2.59248903      -0.00005531       0.00000095       0.00009584
O       -2.19170918      -4.06260046      -1.06812409      -0.00016832       0.00011855       0.00006938
O       -1.05547566      -6.20068863      -0.47450727      -0.00000209       0.00015411       0.00013165
O        0.15968313      -4.05596326      -0.45576037       0.00005132      -0.00005522       0.00003644
H       -1.31879672      -6.01336150       0.44506281       0.00005592      -0.00009052      -0.00017416
H        0.97599642      -4.61815095      -0.39659054      -0.00006356       0.00000288      -0.00000645
S        2.57174329      -6.74772078       0.07154129      -0.00005204      -0.00015227      -0.00002818
O        3.04092816      -7.30640174      -1.16608466      -0.00008368       0.00003290       0.00003147
O        2.34716387      -5.32272108       0.18747739      -0.00001732      -0.00002337       0.00002724
O        1.27421874      -7.51610053       0.56246542       0.00015312       0.00006709       0.00006119
O        3.54291794      -7.10843016       1.27490756      -0.00002149       0.00013416       0.00005038
H        0.55319760      -7.31033760      -0.07094423      -0.00002488      -0.00003587      -0.00006049
H        3.73019733      -8.06315709       1.26074299       0.00006555      -0.00007919      -0.00001089
