14
Properties=species:S:1:pos:R:3:forces:R:3 -2771.42090=T energy=-38103.087850153504 free_energy=-38103.087850153504 pbc="F F F"
S       10.71424600       1.61717905     -17.92929745      -0.00003394       0.00024826      -0.00010235
O       10.88094744       0.18560888     -18.08347695      -0.00047056       0.00006819       0.00032592
O       10.47033338       2.43494342     -19.08720714       0.00035015       0.00001097       0.00030792
O        9.53359647       1.77845691     -16.87304946      -0.00004481       0.00015719      -0.00031489
O       11.90052521       2.19820616     -17.07294468       0.00019991      -0.00037327      -0.00001242
H        9.37778874       2.72589845     -16.71808376      -0.00017774       0.00009752       0.00025946
H       12.76132010       2.00759890     -17.52756332       0.00022730      -0.00029754      -0.00049581
S       14.44105348       0.08368045     -18.61209088       0.00014412       0.00007948      -0.00037156
O       14.50853604      -0.00595210     -20.04612290       0.00013199       0.00009373       0.00068545
O       14.30756842       1.38081373     -17.97917228      -0.00034488       0.00029695      -0.00023532
O       13.35135194      -0.89794272     -18.04020297       0.00036547      -0.00033009      -0.00037190
O       15.73823906      -0.56094100     -17.95069327      -0.00013545       0.00012094       0.00018186
H       12.44781702      -0.52947512     -18.21877625      -0.00001203      -0.00041206       0.00019464
H       15.87805627      -1.44547307     -18.33016945      -0.00019954       0.00023969      -0.00005096
