14
Properties=species:S:1:pos:R:3:forces:R:3 -2771.43690=T energy=-38103.08585903783 free_energy=-38103.08585903783 pbc="F F F"
S       12.55566200       0.46788725     -17.36710873       0.00005943       0.00004475       0.00009410
O       12.48070244      -0.82700874     -18.01579075       0.00002152      -0.00000238      -0.00000373
O       12.50775013       1.66566802     -18.16249906       0.00001445      -0.00003147       0.00001349
O       11.37180390       0.45386540     -16.30382437      -0.00002389      -0.00023997      -0.00008449
O       13.78424496       0.49390035     -16.38533684       0.00002733      -0.00004705      -0.00011115
H       11.35237721       1.30982816     -15.84250246      -0.00001977       0.00022100       0.00007765
H       14.62155532       0.31826821     -16.89256259      -0.00005851       0.00003055       0.00004369
S       15.99049592      -1.67275330     -18.18524172       0.00004328       0.00003355      -0.00016364
O       16.07656072      -2.83096037     -17.34910867      -0.00007144      -0.00012839       0.00009823
O       16.05499566      -0.34661028     -17.57938589      -0.00006483       0.00019443       0.00007263
O       17.14341593      -1.77703097     -19.28075506       0.00003219       0.00012867      -0.00030749
O       14.74251192      -1.71800042     -19.14757284      -0.00003269      -0.00000503       0.00005744
H       16.99823406      -1.09283403     -19.95697426       0.00004563      -0.00020275       0.00023872
H       13.91483635      -1.50386103     -18.64363520       0.00002732       0.00000411      -0.00002529
