14
Properties=species:S:1:pos:R:3:forces:R:3 -2771.11933=T energy=-38102.66661301776 free_energy=-38102.66661301776 pbc="F F F"
S       11.42846341       1.06538181     -15.65207493       0.00045833      -0.00039671       0.00020344
O       12.36713790      -0.02941177     -15.75684448      -0.00055718       0.00038636      -0.00000591
O       11.73507077       2.39947383     -16.07070948      -0.00005923      -0.00024331      -0.00003922
O       10.10594666       0.54541092     -16.39899770       0.00032228       0.00017214      -0.00013662
O       10.92065779       1.15665798     -14.13635391      -0.00003817      -0.00022779       0.00058007
H        9.55919483       1.31371796     -16.63375889      -0.00020021      -0.00016974       0.00000276
H       10.62452299       0.27591984     -13.84827201       0.00009526       0.00048996      -0.00043227
S       14.17342649      -1.75750771     -18.58070855       0.00006301      -0.00022233      -0.00043558
O       14.47021362      -3.08914570     -19.03645745      -0.00001913       0.00024033      -0.00004953
O       13.82539647      -0.69595050     -19.48656633       0.00012815      -0.00008416      -0.00007889
O       13.09935245      -1.90351740     -17.42871027      -0.00034432       0.00063077       0.00064391
O       15.44526809      -1.19069654     -17.75779066      -0.00002155      -0.00019385       0.00028281
H       12.87331493      -1.02770056     -17.03144864      -0.00002660      -0.00064075      -0.00047897
H       15.65166699      -1.81878737     -17.04429741       0.00019936       0.00025906      -0.00005608
