14
Properties=species:S:1:pos:R:3:forces:R:3 -2771.42504=T energy=-38103.08584768435 free_energy=-38103.08584768435 pbc="F F F"
S        5.76666192       5.81190364      -8.12111393      -0.00005241       0.00005337       0.00004759
O        7.16442050       5.54125715      -7.80035463       0.00007987       0.00070888       0.00025503
O        5.08403226       6.87206658      -7.44427964      -0.00079203       0.00000381       0.00018883
O        5.62843570       5.91265519      -9.68842291      -0.00007200       0.00033198       0.00018761
O        4.93369524       4.47265225      -7.89127497       0.00044955      -0.00034681      -0.00028697
H        6.22852428       6.62108191     -10.03887059      -0.00006679       0.00041954       0.00035179
H        5.28305082       3.77964414      -8.47791044       0.00075037       0.00005234      -0.00029820
S        8.81966104       7.31533841     -10.45923362      -0.00014493      -0.00000075      -0.00012828
O        9.55170181       6.24609927     -11.08411776      -0.00015867      -0.00044787      -0.00036138
O        7.43343392       7.54189836     -10.82000404      -0.00016916      -0.00013423      -0.00006738
O        8.95110353       7.24639789      -8.89337746       0.00001752      -0.00020783      -0.00022399
O        9.53643895       8.71184933     -10.72054655      -0.00003225      -0.00019157      -0.00041831
H        8.38298921       6.50944254      -8.54212656      -0.00000397       0.00005308      -0.00014065
H       10.48417464       8.62171847     -10.52169549       0.00019482      -0.00029399       0.00089435
