14
Properties=species:S:1:pos:R:3:forces:R:3 -2771.44481=T energy=-38103.01998642939 free_energy=-38103.01998642939 pbc="F F F"
S        2.61013600      -3.23994328      -3.44785758      -0.00001887       0.00021893       0.00015485
O        2.51535568      -2.93848544      -4.86493168       0.00001183      -0.00002417      -0.00046396
O        3.00894337      -2.22809592      -2.51615227       0.00020778       0.00012308       0.00019515
O        1.14934282      -3.79794053      -3.08985392      -0.00037161      -0.00019896       0.00039531
O        3.52001751      -4.50339484      -3.21922332       0.00014019      -0.00033912      -0.00022804
H        1.18415553      -4.22070380      -2.21699980      -0.00004519       0.00007050      -0.00022976
H        3.29653408      -5.22480737      -3.86033103       0.00011090       0.00009568       0.00014792
S        2.59645275      -6.24838593      -6.30186806      -0.00032604      -0.00003021       0.00025569
O        3.31253485      -6.39810775      -5.04775850      -0.00002331       0.00010604      -0.00003946
O        2.90936491      -7.08634682      -7.42029246       0.00002658       0.00005567       0.00000381
O        1.06024884      -6.42245615      -5.87374166      -0.00026903       0.00024842      -0.00074285
O        2.64591853      -4.75058071      -6.78209609      -0.00003204       0.00014941       0.00022295
H        0.49831671      -6.12815208      -6.60821654       0.00053325      -0.00028208       0.00055001
H        2.45907204      -4.12941600      -6.03333058       0.00005553      -0.00019316      -0.00022159
