 Entering Gaussian System, Link 0=g16
 Input=1SUA.gjf
 Output=1SUA.log
 Initial command:
 /home/scc/software/G16/g16/l1.exe "/tmp/Gau-138017.inp" -scrdir="/tmp/"
 Entering Link 1 = /home/scc/software/G16/g16/l1.exe PID=    138018.
  
 Copyright (c) 1988,1990,1992,1993,1995,1998,2003,2009,2016,
            Gaussian, Inc.  All Rights Reserved.
  
 This is part of the Gaussian(R) 16 program.  It is based on
 the Gaussian(R) 09 system (copyright 2009, Gaussian, Inc.),
 the Gaussian(R) 03 system (copyright 2003, Gaussian, Inc.),
 the Gaussian(R) 98 system (copyright 1998, Gaussian, Inc.),
 the Gaussian(R) 94 system (copyright 1995, Gaussian, Inc.),
 the Gaussian 92(TM) system (copyright 1992, Gaussian, Inc.),
 the Gaussian 90(TM) system (copyright 1990, Gaussian, Inc.),
 the Gaussian 88(TM) system (copyright 1988, Gaussian, Inc.),
 the Gaussian 86(TM) system (copyright 1986, Carnegie Mellon
 University), and the Gaussian 82(TM) system (copyright 1983,
 Carnegie Mellon University). Gaussian is a federally registered
 trademark of Gaussian, Inc.
  
 This software contains proprietary and confidential information,
 including trade secrets, belonging to Gaussian, Inc.
  
 This software is provided under written license and may be
 used, copied, transmitted, or stored only in accord with that
 written license.
  
 The following legend is applicable only to US Government
 contracts under FAR:
  
                    RESTRICTED RIGHTS LEGEND
  
 Use, reproduction and disclosure by the US Government is
 subject to restrictions as set forth in subparagraphs (a)
 and (c) of the Commercial Computer Software - Restricted
 Rights clause in FAR 52.227-19.
  
 Gaussian, Inc.
 340 Quinnipiac St., Bldg. 40, Wallingford CT 06492
  
  
 ---------------------------------------------------------------
 Warning -- This program may not be used in any manner that
 competes with the business of Gaussian, Inc. or will provide
 assistance to any competitor of Gaussian, Inc.  The licensee
 of this program is prohibited from giving any competitor of
 Gaussian, Inc. access to this program.  By using this program,
 the user acknowledges that Gaussian, Inc. is engaged in the
 business of creating and licensing software in the field of
 computational chemistry and represents and warrants to the
 licensee that it is not a competitor of Gaussian, Inc. and that
 it will not use this program in any manner prohibited above.
 ---------------------------------------------------------------
  

 Cite this work as:
 Gaussian 16, Revision A.03,
 M. J. Frisch, G. W. Trucks, H. B. Schlegel, G. E. Scuseria, 
 M. A. Robb, J. R. Cheeseman, G. Scalmani, V. Barone, 
 G. A. Petersson, H. Nakatsuji, X. Li, M. Caricato, A. V. Marenich, 
 J. Bloino, B. G. Janesko, R. Gomperts, B. Mennucci, H. P. Hratchian, 
 J. V. Ortiz, A. F. Izmaylov, J. L. Sonnenberg, D. Williams-Young, 
 F. Ding, F. Lipparini, F. Egidi, J. Goings, B. Peng, A. Petrone, 
 T. Henderson, D. Ranasinghe, V. G. Zakrzewski, J. Gao, N. Rega, 
 G. Zheng, W. Liang, M. Hada, M. Ehara, K. Toyota, R. Fukuda, 
 J. Hasegawa, M. Ishida, T. Nakajima, Y. Honda, O. Kitao, H. Nakai, 
 T. Vreven, K. Throssell, J. A. Montgomery, Jr., J. E. Peralta, 
 F. Ogliaro, M. J. Bearpark, J. J. Heyd, E. N. Brothers, K. N. Kudin, 
 V. N. Staroverov, T. A. Keith, R. Kobayashi, J. Normand, 
 K. Raghavachari, A. P. Rendell, J. C. Burant, S. S. Iyengar, 
 J. Tomasi, M. Cossi, J. M. Millam, M. Klene, C. Adamo, R. Cammi, 
 J. W. Ochterski, R. L. Martin, K. Morokuma, O. Farkas, 
 J. B. Foresman, and D. J. Fox, Gaussian, Inc., Wallingford CT, 2016.
 
 ******************************************
 Gaussian 16:  ES64L-G16RevA.03 25-Dec-2016
                 8-Jun-2022 
 ******************************************
 %nproc=64
 Will use up to   64 processors via shared memory.
 %mem=1000MB
 -------------------------------
 #p wB97XD/6-31++G(d,p) opt freq
 -------------------------------
 1/18=20,19=15,26=3,38=1/1,3;
 2/9=110,12=2,17=6,18=5,40=1/2;
 3/5=1,6=6,7=1111,11=2,25=1,30=1,71=1,74=-58/1,2,3;
 4//1;
 5/5=2,38=5/2;
 6/7=2,8=2,9=2,10=2,28=1/1;
 7//1,2,3,16;
 1/18=20,19=15,26=3/3(2);
 2/9=110/2;
 99//99;
 2/9=110/2;
 3/5=1,6=6,7=1111,11=2,25=1,30=1,71=1,74=-58/1,2,3;
 4/5=5,16=3,69=1/1;
 5/5=2,38=5/2;
 7//1,2,3,16;
 1/18=20,19=15,26=3/3(-5);
 2/9=110/2;
 6/7=2,8=2,9=2,10=2,19=2,28=1/1;
 99/9=1/99;
 Leave Link    1 at Wed Jun  8 18:11:07 2022, MaxMem=   131072000 cpu:               9.3 elap:               0.2
 (Enter /home/scc/software/G16/g16/l101.exe)
 -----
 aaaaa
 -----
 Symbolic Z-matrix:
 Charge =  0 Multiplicity = 1
 C                     1.6353    0.01074   0.0232 
 C                     0.69715  -1.08076  -0.45179 
 C                    -0.69213  -1.09004   0.18104 
 C                    -1.49964   0.13804  -0.17329 
 O                     2.58591   0.41325  -0.59179 
 O                     1.32103   0.46336   1.26328 
 O                    -1.13337   1.04029  -0.88141 
 O                    -2.72187   0.1085    0.40594 
 H                     0.63919  -0.98585  -1.53634 
 H                     1.19859  -2.03168  -0.24174 
 H                    -0.6353   -1.15288   1.26992 
 H                    -1.25736  -1.96718  -0.14866 
 H                     1.97378   1.14624   1.47793 
 H                    -3.17658   0.92028   0.13574 
 
 ITRead=  0  0  0  0  0  0  0  0  0  0  0  0  0  0
 MicOpt= -1 -1 -1 -1 -1 -1 -1 -1 -1 -1 -1 -1 -1 -1
 NAtoms=     14 NQM=       14 NQMF=       0 NMMI=      0 NMMIF=      0
                NMic=       0 NMicF=      0.
                    Isotopes and Nuclear Properties:
 (Nuclear quadrupole moments (NQMom) in fm**2, nuclear magnetic moments (NMagM)
  in nuclear magnetons)

  Atom         1           2           3           4           5           6           7           8           9          10
 IAtWgt=          12          12          12          12          16          16          16          16           1           1
 AtmWgt=  12.0000000  12.0000000  12.0000000  12.0000000  15.9949146  15.9949146  15.9949146  15.9949146   1.0078250   1.0078250
 NucSpn=           0           0           0           0           0           0           0           0           1           1
 AtZEff=  -0.0000000  -0.0000000  -0.0000000  -0.0000000  -0.0000000  -0.0000000  -0.0000000  -0.0000000  -0.0000000  -0.0000000
 NQMom=    0.0000000   0.0000000   0.0000000   0.0000000   0.0000000   0.0000000   0.0000000   0.0000000   0.0000000   0.0000000
 NMagM=    0.0000000   0.0000000   0.0000000   0.0000000   0.0000000   0.0000000   0.0000000   0.0000000   2.7928460   2.7928460
 AtZNuc=   6.0000000   6.0000000   6.0000000   6.0000000   8.0000000   8.0000000   8.0000000   8.0000000   1.0000000   1.0000000

  Atom        11          12          13          14
 IAtWgt=           1           1           1           1
 AtmWgt=   1.0078250   1.0078250   1.0078250   1.0078250
 NucSpn=           1           1           1           1
 AtZEff=  -0.0000000  -0.0000000  -0.0000000  -0.0000000
 NQMom=    0.0000000   0.0000000   0.0000000   0.0000000
 NMagM=    2.7928460   2.7928460   2.7928460   2.7928460
 AtZNuc=   1.0000000   1.0000000   1.0000000   1.0000000
 Leave Link  101 at Wed Jun  8 18:11:07 2022, MaxMem=   131072000 cpu:              22.0 elap:               0.4
 (Enter /home/scc/software/G16/g16/l103.exe)

 GradGradGradGradGradGradGradGradGradGradGradGradGradGradGradGradGradGrad
 Berny optimization.
 Initialization pass.
                           ----------------------------
                           !    Initial Parameters    !
                           ! (Angstroms and Degrees)  !
 --------------------------                            --------------------------
 ! Name  Definition              Value          Derivative Info.                !
 --------------------------------------------------------------------------------
 ! R1    R(1,2)                  1.5156         estimate D2E/DX2                !
 ! R2    R(1,5)                  1.2016         estimate D2E/DX2                !
 ! R3    R(1,6)                  1.357          estimate D2E/DX2                !
 ! R4    R(2,3)                  1.5266         estimate D2E/DX2                !
 ! R5    R(2,9)                  1.0902         estimate D2E/DX2                !
 ! R6    R(2,10)                 1.0954         estimate D2E/DX2                !
 ! R7    R(3,4)                  1.5119         estimate D2E/DX2                !
 ! R8    R(3,11)                 1.0922         estimate D2E/DX2                !
 ! R9    R(3,12)                 1.0943         estimate D2E/DX2                !
 ! R10   R(4,7)                  1.204          estimate D2E/DX2                !
 ! R11   R(4,8)                  1.3529         estimate D2E/DX2                !
 ! R12   R(6,13)                 0.9688         estimate D2E/DX2                !
 ! R13   R(8,14)                 0.9689         estimate D2E/DX2                !
 ! A1    A(2,1,5)              124.7868         estimate D2E/DX2                !
 ! A2    A(2,1,6)              112.5352         estimate D2E/DX2                !
 ! A3    A(5,1,6)              122.6287         estimate D2E/DX2                !
 ! A4    A(1,2,3)              115.9609         estimate D2E/DX2                !
 ! A5    A(1,2,9)              106.3781         estimate D2E/DX2                !
 ! A6    A(1,2,10)             106.3641         estimate D2E/DX2                !
 ! A7    A(3,2,9)              111.3774         estimate D2E/DX2                !
 ! A8    A(3,2,10)             109.3797         estimate D2E/DX2                !
 ! A9    A(9,2,10)             106.8984         estimate D2E/DX2                !
 ! A10   A(2,3,4)              112.5793         estimate D2E/DX2                !
 ! A11   A(2,3,11)             111.4858         estimate D2E/DX2                !
 ! A12   A(2,3,12)             110.4883         estimate D2E/DX2                !
 ! A13   A(4,3,11)             107.9498         estimate D2E/DX2                !
 ! A14   A(4,3,12)             107.7335         estimate D2E/DX2                !
 ! A15   A(11,3,12)            106.3277         estimate D2E/DX2                !
 ! A16   A(3,4,7)              125.7364         estimate D2E/DX2                !
 ! A17   A(3,4,8)              111.3741         estimate D2E/DX2                !
 ! A18   A(7,4,8)              122.8887         estimate D2E/DX2                !
 ! A19   A(1,6,13)             106.353          estimate D2E/DX2                !
 ! A20   A(4,8,14)             106.6364         estimate D2E/DX2                !
 ! D1    D(5,1,2,3)           -157.9424         estimate D2E/DX2                !
 ! D2    D(5,1,2,9)            -33.4941         estimate D2E/DX2                !
 ! D3    D(5,1,2,10)            80.213          estimate D2E/DX2                !
 ! D4    D(6,1,2,3)             24.5605         estimate D2E/DX2                !
 ! D5    D(6,1,2,9)            149.0089         estimate D2E/DX2                !
 ! D6    D(6,1,2,10)           -97.2841         estimate D2E/DX2                !
 ! D7    D(2,1,6,13)           179.6242         estimate D2E/DX2                !
 ! D8    D(5,1,6,13)             2.0649         estimate D2E/DX2                !
 ! D9    D(1,2,3,4)             65.1401         estimate D2E/DX2                !
 ! D10   D(1,2,3,11)           -56.3518         estimate D2E/DX2                !
 ! D11   D(1,2,3,12)          -174.3605         estimate D2E/DX2                !
 ! D12   D(9,2,3,4)            -56.6885         estimate D2E/DX2                !
 ! D13   D(9,2,3,11)          -178.1804         estimate D2E/DX2                !
 ! D14   D(9,2,3,12)            63.8109         estimate D2E/DX2                !
 ! D15   D(10,2,3,4)          -174.6315         estimate D2E/DX2                !
 ! D16   D(10,2,3,11)           63.8766         estimate D2E/DX2                !
 ! D17   D(10,2,3,12)          -54.1321         estimate D2E/DX2                !
 ! D18   D(2,3,4,7)              0.6824         estimate D2E/DX2                !
 ! D19   D(2,3,4,8)           -179.6351         estimate D2E/DX2                !
 ! D20   D(11,3,4,7)           124.1649         estimate D2E/DX2                !
 ! D21   D(11,3,4,8)           -56.1526         estimate D2E/DX2                !
 ! D22   D(12,3,4,7)          -121.3881         estimate D2E/DX2                !
 ! D23   D(12,3,4,8)            58.2944         estimate D2E/DX2                !
 ! D24   D(3,4,8,14)           179.9822         estimate D2E/DX2                !
 ! D25   D(7,4,8,14)            -0.3247         estimate D2E/DX2                !
 --------------------------------------------------------------------------------
 Trust Radius=3.00D-01 FncErr=1.00D-07 GrdErr=1.00D-06 EigMax=2.50D+02 EigMin=1.00D-04
 Number of steps in this run=     68 maximum allowed number of steps=    100.
 GradGradGradGradGradGradGradGradGradGradGradGradGradGradGradGradGradGrad

 Leave Link  103 at Wed Jun  8 18:11:08 2022, MaxMem=   131072000 cpu:               2.8 elap:               0.0
 (Enter /home/scc/software/G16/g16/l202.exe)
                          Input orientation:                          
 ---------------------------------------------------------------------
 Center     Atomic      Atomic             Coordinates (Angstroms)
 Number     Number       Type             X           Y           Z
 ---------------------------------------------------------------------
      1          6           0        1.635300    0.010740    0.023200
      2          6           0        0.697150   -1.080760   -0.451790
      3          6           0       -0.692130   -1.090040    0.181040
      4          6           0       -1.499640    0.138040   -0.173290
      5          8           0        2.585910    0.413250   -0.591790
      6          8           0        1.321030    0.463360    1.263280
      7          8           0       -1.133370    1.040290   -0.881410
      8          8           0       -2.721870    0.108500    0.405940
      9          1           0        0.639190   -0.985850   -1.536340
     10          1           0        1.198590   -2.031680   -0.241740
     11          1           0       -0.635300   -1.152880    1.269920
     12          1           0       -1.257360   -1.967180   -0.148660
     13          1           0        1.973780    1.146240    1.477930
     14          1           0       -3.176580    0.920280    0.135740
 ---------------------------------------------------------------------
                    Distance matrix (angstroms):
                    1          2          3          4          5
     1  C    0.000000
     2  C    1.515623   0.000000
     3  C    2.579450   1.526650   0.000000
     4  C    3.143670   2.527632   1.511887   0.000000
     5  O    1.201618   2.412277   3.688183   4.116139   0.000000
     6  O    1.356993   2.390606   2.763532   3.182098   2.245822
     7  O    3.089308   2.834472   2.421115   1.204011   3.782870
     8  O    4.375040   3.720180   2.367894   1.352859   5.409331
     9  H    2.101807   1.090237   2.175468   2.774099   2.576698
    10  H    2.105324   1.095359   2.154124   3.463064   2.832821
    11  H    2.839709   2.178281   1.092171   2.120475   4.036697
    12  H    3.508445   2.167426   1.094332   2.119259   4.542415
    13  H    1.876211   3.211407   3.713482   3.975882   2.279412
    14  H    4.898379   4.399447   3.196237   1.876040   5.830323
                    6          7          8          9         10
     6  O    0.000000
     7  O    3.310079   0.000000
     8  O    4.148011   2.246961   0.000000
     9  H    3.225366   2.770586   4.033209   0.000000
    10  H    2.916385   3.909503   4.513299   1.755756   0.000000
    11  H    2.537618   3.112280   2.586758   3.086636   2.533882
    12  H    3.814341   3.097930   2.600157   2.546677   2.458559
    13  H    0.968753   3.902831   4.926986   3.925909   3.695587
    14  H    4.659251   2.285542   0.968894   4.581406   5.291377
                   11         12         13         14
    11  H    0.000000
    12  H    1.749975   0.000000
    13  H    3.483751   4.772782   0.000000
    14  H    3.470225   3.478752   5.327170   0.000000
 Stoichiometry    C4H6O4
 Framework group  C1[X(C4H6O4)]
 Deg. of freedom    36
 Full point group                 C1      NOp   1
 Largest Abelian subgroup         C1      NOp   1
 Largest concise Abelian subgroup C1      NOp   1
                         Standard orientation:                         
 ---------------------------------------------------------------------
 Center     Atomic      Atomic             Coordinates (Angstroms)
 Number     Number       Type             X           Y           Z
 ---------------------------------------------------------------------
      1          6           0       -1.635300   -0.010739    0.023200
      2          6           0       -0.697150    1.080760   -0.451790
      3          6           0        0.692130    1.090040    0.181040
      4          6           0        1.499640   -0.138040   -0.173290
      5          8           0       -2.585910   -0.413249   -0.591790
      6          8           0       -1.321030   -0.463360    1.263280
      7          8           0        1.133370   -1.040290   -0.881410
      8          8           0        2.721870   -0.108500    0.405940
      9          1           0       -0.639190    0.985850   -1.536340
     10          1           0       -1.198590    2.031680   -0.241740
     11          1           0        0.635300    1.152880    1.269920
     12          1           0        1.257360    1.967180   -0.148660
     13          1           0       -1.973780   -1.146239    1.477930
     14          1           0        3.176580   -0.920281    0.135740
 ---------------------------------------------------------------------
 Rotational constants (GHZ):           4.2015986           1.2104571           1.1813232
 Leave Link  202 at Wed Jun  8 18:11:08 2022, MaxMem=   131072000 cpu:               1.9 elap:               0.0
 (Enter /home/scc/software/G16/g16/l301.exe)
 Standard basis: 6-31++G(d,p) (6D, 7F)
 Ernie: Thresh=  0.10000D-02 Tol=  0.10000D-05 Strict=F.
 There are   188 symmetry adapted cartesian basis functions of A   symmetry.
 There are   188 symmetry adapted basis functions of A   symmetry.
   188 basis functions,   304 primitive gaussians,   188 cartesian basis functions
    31 alpha electrons       31 beta electrons
       nuclear repulsion energy       380.3529320030 Hartrees.
 IExCor= 4639 DFT=T Ex+Corr=wB97XD ExCW=0 ScaHFX=  1.000000
 ScaDFX=  1.000000  1.000000  1.000000  1.000000 ScalE2=  1.000000  1.000000
 IRadAn=      5 IRanWt=     -1 IRanGd=            0 ICorTp=0 IEmpDi=121
 HFx  wShort=  0.000000 wLong=  0.200000 cFull=  0.222036 cShort=  0.000000 cLong=  0.777964
 DFx  wShort=  0.000000 wLong=  0.200000 cFull=  0.000000 cShort=  0.000000 cLong=  1.000000
 NAtoms=   14 NActive=   14 NUniq=   14 SFac= 1.00D+00 NAtFMM=   60 NAOKFM=F Big=F
 Integral buffers will be    131072 words long.
 Raffenetti 2 integral format.
 Two-electron integral symmetry is turned on.
 R6Disp:  Grimme-D2 Dispersion energy=       -0.0060030848 Hartrees.
 Nuclear repulsion after empirical dispersion term =      380.3469289183 Hartrees.
 Leave Link  301 at Wed Jun  8 18:11:08 2022, MaxMem=   131072000 cpu:               7.8 elap:               0.1
 (Enter /home/scc/software/G16/g16/l302.exe)
 NPDir=0 NMtPBC=     1 NCelOv=     1 NCel=       1 NClECP=     1 NCelD=      1
         NCelK=      1 NCelE2=     1 NClLst=     1 CellRange=     0.0.
 One-electron integrals computed using PRISM.
 One-electron integral symmetry used in STVInt
 PrsmSu:  requested number of processors reduced to:  37 ShMem   1 Linda.
 NBasis=   188 RedAO= T EigKep=  5.84D-05  NBF=   188
 NBsUse=   188 1.00D-06 EigRej= -1.00D+00 NBFU=   188
 Precomputing XC quadrature grid using
 IXCGrd= 4 IRadAn=           5 IRanWt=          -1 IRanGd=           0 AccXCQ= 0.00D+00.
 Generated NRdTot=       0 NPtTot=           0 NUsed=           0 NTot=          32
 NSgBfM=   188   188   188   188   188 MxSgAt=    14 MxSgA2=    14.
 Leave Link  302 at Wed Jun  8 18:11:08 2022, MaxMem=   131072000 cpu:              21.0 elap:               0.3
 (Enter /home/scc/software/G16/g16/l303.exe)
 DipDrv:  MaxL=1.
 Leave Link  303 at Wed Jun  8 18:11:08 2022, MaxMem=   131072000 cpu:              10.6 elap:               0.2
 (Enter /home/scc/software/G16/g16/l401.exe)
 ExpMin= 3.60D-02 ExpMax= 5.48D+03 ExpMxC= 8.25D+02 IAcc=3 IRadAn=         5 AccDes= 0.00D+00
 Harris functional with IExCor= 4639 and IRadAn=       5 diagonalized for initial guess.
 HarFok:  IExCor= 4639 AccDes= 0.00D+00 IRadAn=         5 IDoV= 1 UseB2=F ITyADJ=14
 ICtDFT=  3500011 ScaDFX=  1.000000  1.000000  1.000000  1.000000
 FoFCou: FMM=F IPFlag=           0 FMFlag=      100000 FMFlg1=           0
         NFxFlg=           0 DoJE=T BraDBF=F KetDBF=T FulRan=T
         wScrn=  0.000000 ICntrl=       500 IOpCl=  0 I1Cent=   200000004 NGrid=           0
         NMat0=    1 NMatS0=      1 NMatT0=    0 NMatD0=    1 NMtDS0=    0 NMtDT0=    0
 Petite list used in FoFCou.
 Harris En= -439.340192367552    
 JPrj=0 DoOrth=F DoCkMO=F.
 Leave Link  401 at Wed Jun  8 18:11:09 2022, MaxMem=   131072000 cpu:              28.8 elap:               0.5
 (Enter /home/scc/software/G16/g16/l502.exe)
 Integral symmetry usage will be decided dynamically.
 Closed shell SCF:
 Using DIIS extrapolation, IDIIS=  1040.
 NGot=   131072000 LenX=   130987294 LenY=   130951509
 Requested convergence on RMS density matrix=1.00D-08 within 128 cycles.
 Requested convergence on MAX density matrix=1.00D-06.
 Requested convergence on             energy=1.00D-06.
 No special actions if energy rises.
 Fock matrices will be formed incrementally for  20 cycles.

 Cycle   1  Pass 1  IDiag  1:
 FoFJK:  IHMeth= 1 ICntrl=       0 DoSepK=T KAlg= 0 I1Cent=           0 FoldK=F
 IRaf=         1 NMat=       1 IRICut=       1 DoRegI=T DoRafI=F ISym2E= 0 IDoP0=0 IntGTp=1.
 FoFCou: FMM=F IPFlag=           0 FMFlag=      100000 FMFlg1=           0
         NFxFlg=           0 DoJE=T BraDBF=F KetDBF=F FulRan=T
         wScrn=  0.000000 ICntrl=       500 IOpCl=  0 I1Cent=           0 NGrid=           0
         NMat0=    1 NMatS0=      1 NMatT0=    0 NMatD0=    1 NMtDS0=    0 NMtDT0=    0
 Symmetry not used in FoFCou.
 E= -456.727531453867    
 DIIS: error= 5.95D-02 at cycle   1 NSaved=   1.
 NSaved= 1 IEnMin= 1 EnMin= -456.727531453867     IErMin= 1 ErrMin= 5.95D-02
 ErrMax= 5.95D-02  0.00D+00 EMaxC= 1.00D-01 BMatC= 4.08D-01 BMatP= 4.08D-01
 IDIUse=3 WtCom= 4.05D-01 WtEn= 5.95D-01
 Coeff-Com:  0.100D+01
 Coeff-En:   0.100D+01
 Coeff:      0.100D+01
 Gap=     0.452 Goal=   None    Shift=    0.000
 GapD=    0.452 DampG=2.000 DampE=0.500 DampFc=1.0000 IDamp=-1.
 RMSDP=5.68D-03 MaxDP=2.83D-01              OVMax= 9.41D-02

 Cycle   2  Pass 1  IDiag  1:
 RMSU=  5.55D-03    CP:  9.50D-01
 E= -456.792028122847     Delta-E=       -0.064496668980 Rises=F Damp=F
 DIIS: error= 1.84D-02 at cycle   2 NSaved=   2.
 NSaved= 2 IEnMin= 2 EnMin= -456.792028122847     IErMin= 2 ErrMin= 1.84D-02
 ErrMax= 1.84D-02  0.00D+00 EMaxC= 1.00D-01 BMatC= 9.24D-02 BMatP= 4.08D-01
 IDIUse=3 WtCom= 8.16D-01 WtEn= 1.84D-01
 Coeff-Com:  0.276D+00 0.724D+00
 Coeff-En:   0.265D+00 0.735D+00
 Coeff:      0.274D+00 0.726D+00
 Gap=     0.459 Goal=   None    Shift=    0.000
 RMSDP=2.43D-03 MaxDP=6.42D-02 DE=-6.45D-02 OVMax= 6.92D-02

 Cycle   3  Pass 1  IDiag  1:
 RMSU=  2.29D-03    CP:  9.22D-01  9.24D-01
 E= -456.840707813120     Delta-E=       -0.048679690274 Rises=F Damp=F
 DIIS: error= 7.73D-03 at cycle   3 NSaved=   3.
 NSaved= 3 IEnMin= 3 EnMin= -456.840707813120     IErMin= 3 ErrMin= 7.73D-03
 ErrMax= 7.73D-03  0.00D+00 EMaxC= 1.00D-01 BMatC= 2.72D-02 BMatP= 9.24D-02
 IDIUse=3 WtCom= 9.23D-01 WtEn= 7.73D-02
 Coeff-Com:  0.339D-01 0.356D+00 0.610D+00
 Coeff-En:   0.000D+00 0.193D+00 0.807D+00
 Coeff:      0.313D-01 0.344D+00 0.625D+00
 Gap=     0.400 Goal=   None    Shift=    0.000
 RMSDP=8.92D-04 MaxDP=2.59D-02 DE=-4.87D-02 OVMax= 3.80D-02

 Cycle   4  Pass 1  IDiag  1:
 RMSU=  5.69D-04    CP:  9.19D-01  1.01D+00  7.81D-01
 E= -456.858622470923     Delta-E=       -0.017914657803 Rises=F Damp=F
 DIIS: error= 2.05D-03 at cycle   4 NSaved=   4.
 NSaved= 4 IEnMin= 4 EnMin= -456.858622470923     IErMin= 4 ErrMin= 2.05D-03
 ErrMax= 2.05D-03  0.00D+00 EMaxC= 1.00D-01 BMatC= 2.25D-03 BMatP= 2.72D-02
 IDIUse=3 WtCom= 9.80D-01 WtEn= 2.05D-02
 Coeff-Com:  0.209D-02 0.144D+00 0.335D+00 0.519D+00
 Coeff-En:   0.000D+00 0.000D+00 0.000D+00 0.100D+01
 Coeff:      0.205D-02 0.141D+00 0.328D+00 0.529D+00
 Gap=     0.409 Goal=   None    Shift=    0.000
 RMSDP=3.32D-04 MaxDP=1.13D-02 DE=-1.79D-02 OVMax= 9.93D-03

 Cycle   5  Pass 1  IDiag  1:
 RMSU=  1.95D-04    CP:  9.16D-01  1.03D+00  8.54D-01  7.20D-01
 E= -456.860222257727     Delta-E=       -0.001599786804 Rises=F Damp=F
 DIIS: error= 4.62D-04 at cycle   5 NSaved=   5.
 NSaved= 5 IEnMin= 5 EnMin= -456.860222257727     IErMin= 5 ErrMin= 4.62D-04
 ErrMax= 4.62D-04  0.00D+00 EMaxC= 1.00D-01 BMatC= 7.40D-05 BMatP= 2.25D-03
 IDIUse=3 WtCom= 9.95D-01 WtEn= 4.62D-03
 Coeff-Com: -0.976D-03 0.353D-01 0.100D+00 0.223D+00 0.643D+00
 Coeff-En:   0.000D+00 0.000D+00 0.000D+00 0.000D+00 0.100D+01
 Coeff:     -0.971D-03 0.352D-01 0.995D-01 0.222D+00 0.645D+00
 Gap=     0.408 Goal=   None    Shift=    0.000
 RMSDP=7.87D-05 MaxDP=2.85D-03 DE=-1.60D-03 OVMax= 2.41D-03

 Cycle   6  Pass 1  IDiag  1:
 RMSU=  4.55D-05    CP:  9.15D-01  1.03D+00  8.69D-01  7.66D-01  9.86D-01
 E= -456.860277944240     Delta-E=       -0.000055686513 Rises=F Damp=F
 DIIS: error= 1.44D-04 at cycle   6 NSaved=   6.
 NSaved= 6 IEnMin= 6 EnMin= -456.860277944240     IErMin= 6 ErrMin= 1.44D-04
 ErrMax= 1.44D-04  0.00D+00 EMaxC= 1.00D-01 BMatC= 9.43D-06 BMatP= 7.40D-05
 IDIUse=3 WtCom= 9.99D-01 WtEn= 1.44D-03
 Coeff-Com: -0.733D-03-0.145D-01-0.237D-01-0.131D-01 0.264D+00 0.789D+00
 Coeff-En:   0.000D+00 0.000D+00 0.000D+00 0.000D+00 0.000D+00 0.100D+01
 Coeff:     -0.732D-03-0.145D-01-0.237D-01-0.131D-01 0.263D+00 0.789D+00
 Gap=     0.408 Goal=   None    Shift=    0.000
 RMSDP=6.81D-05 MaxDP=3.07D-03 DE=-5.57D-05 OVMax= 8.28D-04

 Cycle   7  Pass 1  IDiag  1:
 RMSU=  1.93D-05    CP:  9.14D-01  1.04D+00  8.87D-01  7.87D-01  1.12D+00
                    CP:  9.89D-01
 E= -456.860288355874     Delta-E=       -0.000010411634 Rises=F Damp=F
 DIIS: error= 2.25D-05 at cycle   7 NSaved=   7.
 NSaved= 7 IEnMin= 7 EnMin= -456.860288355874     IErMin= 7 ErrMin= 2.25D-05
 ErrMax= 2.25D-05  0.00D+00 EMaxC= 1.00D-01 BMatC= 3.39D-07 BMatP= 9.43D-06
 IDIUse=1 WtCom= 1.00D+00 WtEn= 0.00D+00
 Coeff-Com: -0.262D-04-0.629D-02-0.131D-01-0.223D-01 0.981D-02 0.155D+00
 Coeff-Com:  0.877D+00
 Coeff:     -0.262D-04-0.629D-02-0.131D-01-0.223D-01 0.981D-02 0.155D+00
 Coeff:      0.877D+00
 Gap=     0.408 Goal=   None    Shift=    0.000
 RMSDP=1.84D-05 MaxDP=8.11D-04 DE=-1.04D-05 OVMax= 3.15D-04

 Cycle   8  Pass 1  IDiag  1:
 RMSU=  4.79D-06    CP:  9.13D-01  1.04D+00  8.91D-01  7.91D-01  1.17D+00
                    CP:  1.06D+00  1.16D+00
 E= -456.860289003778     Delta-E=       -0.000000647904 Rises=F Damp=F
 DIIS: error= 6.43D-06 at cycle   8 NSaved=   8.
 NSaved= 8 IEnMin= 8 EnMin= -456.860289003778     IErMin= 8 ErrMin= 6.43D-06
 ErrMax= 6.43D-06  0.00D+00 EMaxC= 1.00D-01 BMatC= 3.58D-08 BMatP= 3.39D-07
 IDIUse=1 WtCom= 1.00D+00 WtEn= 0.00D+00
 Coeff-Com:  0.347D-04 0.108D-03-0.124D-03-0.331D-02-0.181D-01-0.451D-01
 Coeff-Com:  0.159D+00 0.907D+00
 Coeff:      0.347D-04 0.108D-03-0.124D-03-0.331D-02-0.181D-01-0.451D-01
 Coeff:      0.159D+00 0.907D+00
 Gap=     0.408 Goal=   None    Shift=    0.000
 RMSDP=4.50D-06 MaxDP=1.44D-04 DE=-6.48D-07 OVMax= 1.12D-04

 Cycle   9  Pass 1  IDiag  1:
 RMSU=  1.98D-06    CP:  9.13D-01  1.04D+00  8.92D-01  7.90D-01  1.18D+00
                    CP:  1.09D+00  1.24D+00  1.26D+00
 E= -456.860289072628     Delta-E=       -0.000000068849 Rises=F Damp=F
 DIIS: error= 2.88D-06 at cycle   9 NSaved=   9.
 NSaved= 9 IEnMin= 9 EnMin= -456.860289072628     IErMin= 9 ErrMin= 2.88D-06
 ErrMax= 2.88D-06  0.00D+00 EMaxC= 1.00D-01 BMatC= 4.73D-09 BMatP= 3.58D-08
 IDIUse=1 WtCom= 1.00D+00 WtEn= 0.00D+00
 Coeff-Com:  0.214D-04 0.820D-03 0.160D-02 0.151D-02-0.545D-02-0.352D-01
 Coeff-Com: -0.609D-01 0.244D+00 0.854D+00
 Coeff:      0.214D-04 0.820D-03 0.160D-02 0.151D-02-0.545D-02-0.352D-01
 Coeff:     -0.609D-01 0.244D+00 0.854D+00
 Gap=     0.408 Goal=   None    Shift=    0.000
 RMSDP=1.26D-06 MaxDP=2.87D-05 DE=-6.88D-08 OVMax= 4.17D-05

 Cycle  10  Pass 1  IDiag  1:
 RMSU=  5.77D-07    CP:  9.13D-01  1.04D+00  8.92D-01  7.89D-01  1.18D+00
                    CP:  1.09D+00  1.28D+00  1.36D+00  1.09D+00
 E= -456.860289080327     Delta-E=       -0.000000007699 Rises=F Damp=F
 DIIS: error= 9.31D-07 at cycle  10 NSaved=  10.
 NSaved=10 IEnMin=10 EnMin= -456.860289080327     IErMin=10 ErrMin= 9.31D-07
 ErrMax= 9.31D-07  0.00D+00 EMaxC= 1.00D-01 BMatC= 4.03D-10 BMatP= 4.73D-09
 IDIUse=1 WtCom= 1.00D+00 WtEn= 0.00D+00
 Coeff-Com:  0.423D-05 0.247D-03 0.502D-03 0.622D-03-0.246D-03-0.829D-02
 Coeff-Com: -0.263D-01 0.210D-01 0.253D+00 0.760D+00
 Coeff:      0.423D-05 0.247D-03 0.502D-03 0.622D-03-0.246D-03-0.829D-02
 Coeff:     -0.263D-01 0.210D-01 0.253D+00 0.760D+00
 Gap=     0.408 Goal=   None    Shift=    0.000
 RMSDP=3.21D-07 MaxDP=1.28D-05 DE=-7.70D-09 OVMax= 9.88D-06

 Cycle  11  Pass 1  IDiag  1:
 RMSU=  1.77D-07    CP:  9.13D-01  1.04D+00  8.92D-01  7.89D-01  1.18D+00
                    CP:  1.09D+00  1.28D+00  1.38D+00  1.14D+00  1.07D+00
 E= -456.860289080660     Delta-E=       -0.000000000333 Rises=F Damp=F
 DIIS: error= 9.19D-07 at cycle  11 NSaved=  11.
 NSaved=11 IEnMin=11 EnMin= -456.860289080660     IErMin=11 ErrMin= 9.19D-07
 ErrMax= 9.19D-07  0.00D+00 EMaxC= 1.00D-01 BMatC= 1.88D-10 BMatP= 4.03D-10
 IDIUse=1 WtCom= 1.00D+00 WtEn= 0.00D+00
 Coeff-Com: -0.171D-05-0.254D-05 0.848D-05 0.950D-04 0.956D-03 0.153D-02
 Coeff-Com: -0.416D-02-0.327D-01-0.131D-01 0.449D+00 0.598D+00
 Coeff:     -0.171D-05-0.254D-05 0.848D-05 0.950D-04 0.956D-03 0.153D-02
 Coeff:     -0.416D-02-0.327D-01-0.131D-01 0.449D+00 0.598D+00
 Gap=     0.408 Goal=   None    Shift=    0.000
 RMSDP=1.51D-07 MaxDP=6.30D-06 DE=-3.33D-10 OVMax= 4.01D-06

 Cycle  12  Pass 1  IDiag  1:
 RMSU=  7.65D-08    CP:  9.13D-01  1.04D+00  8.92D-01  7.89D-01  1.18D+00
                    CP:  1.09D+00  1.28D+00  1.38D+00  1.17D+00  1.15D+00
                    CP:  8.63D-01
 E= -456.860289080813     Delta-E=       -0.000000000153 Rises=F Damp=F
 DIIS: error= 7.91D-08 at cycle  12 NSaved=  12.
 NSaved=12 IEnMin=12 EnMin= -456.860289080813     IErMin=12 ErrMin= 7.91D-08
 ErrMax= 7.91D-08  0.00D+00 EMaxC= 1.00D-01 BMatC= 3.03D-12 BMatP= 1.88D-10
 IDIUse=1 WtCom= 1.00D+00 WtEn= 0.00D+00
 Coeff-Com: -0.488D-06-0.205D-04-0.410D-04-0.389D-04 0.175D-03 0.864D-03
 Coeff-Com:  0.169D-02-0.652D-02-0.241D-01-0.354D-02 0.901D-01 0.941D+00
 Coeff:     -0.488D-06-0.205D-04-0.410D-04-0.389D-04 0.175D-03 0.864D-03
 Coeff:      0.169D-02-0.652D-02-0.241D-01-0.354D-02 0.901D-01 0.941D+00
 Gap=     0.408 Goal=   None    Shift=    0.000
 RMSDP=4.19D-08 MaxDP=1.74D-06 DE=-1.53D-10 OVMax= 1.08D-06

 Cycle  13  Pass 1  IDiag  1:
 RMSU=  1.90D-08    CP:  9.13D-01  1.04D+00  8.92D-01  7.89D-01  1.18D+00
                    CP:  1.09D+00  1.28D+00  1.38D+00  1.17D+00  1.18D+00
                    CP:  9.78D-01  1.12D+00
 E= -456.860289080818     Delta-E=       -0.000000000005 Rises=F Damp=F
 DIIS: error= 3.27D-08 at cycle  13 NSaved=  13.
 NSaved=13 IEnMin=13 EnMin= -456.860289080818     IErMin=13 ErrMin= 3.27D-08
 ErrMax= 3.27D-08  0.00D+00 EMaxC= 1.00D-01 BMatC= 3.87D-13 BMatP= 3.03D-12
 IDIUse=1 WtCom= 1.00D+00 WtEn= 0.00D+00
 Coeff-Com: -0.487D-07-0.567D-05-0.122D-04-0.161D-04-0.447D-05 0.149D-03
 Coeff-Com:  0.686D-03 0.284D-04-0.613D-02-0.278D-01-0.972D-02 0.281D+00
 Coeff-Com:  0.762D+00
 Coeff:     -0.487D-07-0.567D-05-0.122D-04-0.161D-04-0.447D-05 0.149D-03
 Coeff:      0.686D-03 0.284D-04-0.613D-02-0.278D-01-0.972D-02 0.281D+00
 Coeff:      0.762D+00
 Gap=     0.408 Goal=   None    Shift=    0.000
 RMSDP=8.13D-09 MaxDP=1.41D-07 DE=-4.89D-12 OVMax= 3.27D-07

 SCF Done:  E(RwB97XD) =  -456.860289081     A.U. after   13 cycles
            NFock= 13  Conv=0.81D-08     -V/T= 2.0088
 KE= 4.528705863912D+02 PE=-1.831209249675D+03 EE= 5.411314452844D+02
 Leave Link  502 at Wed Jun  8 18:11:19 2022, MaxMem=   131072000 cpu:             625.9 elap:               9.8
 (Enter /home/scc/software/G16/g16/l601.exe)
 Copying SCF densities to generalized density rwf, IOpCl= 0 IROHF=0.

 **********************************************************************

            Population analysis using the SCF density.

 **********************************************************************

 Orbital symmetries:
       Occupied  (A) (A) (A) (A) (A) (A) (A) (A) (A) (A) (A) (A)
                 (A) (A) (A) (A) (A) (A) (A) (A) (A) (A) (A) (A)
                 (A) (A) (A) (A) (A) (A) (A)
       Virtual   (A) (A) (A) (A) (A) (A) (A) (A) (A) (A) (A) (A)
                 (A) (A) (A) (A) (A) (A) (A) (A) (A) (A) (A) (A)
                 (A) (A) (A) (A) (A) (A) (A) (A) (A) (A) (A) (A)
                 (A) (A) (A) (A) (A) (A) (A) (A) (A) (A) (A) (A)
                 (A) (A) (A) (A) (A) (A) (A) (A) (A) (A) (A) (A)
                 (A) (A) (A) (A) (A) (A) (A) (A) (A) (A) (A) (A)
                 (A) (A) (A) (A) (A) (A) (A) (A) (A) (A) (A) (A)
                 (A) (A) (A) (A) (A) (A) (A) (A) (A) (A) (A) (A)
                 (A) (A) (A) (A) (A) (A) (A) (A) (A) (A) (A) (A)
                 (A) (A) (A) (A) (A) (A) (A) (A) (A) (A) (A) (A)
                 (A) (A) (A) (A) (A) (A) (A) (A) (A) (A) (A) (A)
                 (A) (A) (A) (A) (A) (A) (A) (A) (A) (A) (A) (A)
                 (A) (A) (A) (A) (A) (A) (A) (A) (A) (A) (A) (A)
                 (A)
 The electronic state is 1-A.
 Alpha  occ. eigenvalues --  -19.34188 -19.33722 -19.28613 -19.27702 -10.45426
 Alpha  occ. eigenvalues --  -10.44881 -10.33540 -10.33197  -1.23160  -1.22463
 Alpha  occ. eigenvalues --   -1.14029  -1.13303  -0.92358  -0.82271  -0.72965
 Alpha  occ. eigenvalues --   -0.69781  -0.61647  -0.59992  -0.59449  -0.57777
 Alpha  occ. eigenvalues --   -0.56276  -0.55601  -0.51129  -0.50657  -0.48863
 Alpha  occ. eigenvalues --   -0.47591  -0.46559  -0.42551  -0.41682  -0.38180
 Alpha  occ. eigenvalues --   -0.37207
 Alpha virt. eigenvalues --    0.03562   0.04852   0.05039   0.06189   0.06781
 Alpha virt. eigenvalues --    0.07350   0.08337   0.09592   0.12000   0.12324
 Alpha virt. eigenvalues --    0.12478   0.14018   0.14968   0.15671   0.16347
 Alpha virt. eigenvalues --    0.16565   0.17599   0.17720   0.18229   0.19754
 Alpha virt. eigenvalues --    0.20904   0.21207   0.21747   0.23708   0.25860
 Alpha virt. eigenvalues --    0.26794   0.28023   0.28548   0.29538   0.30986
 Alpha virt. eigenvalues --    0.31614   0.32616   0.33436   0.34040   0.34569
 Alpha virt. eigenvalues --    0.35039   0.35991   0.36870   0.37441   0.38360
 Alpha virt. eigenvalues --    0.38997   0.40894   0.41850   0.42380   0.43711
 Alpha virt. eigenvalues --    0.44441   0.45758   0.47174   0.48258   0.48730
 Alpha virt. eigenvalues --    0.50442   0.57018   0.62095   0.74826   0.75188
 Alpha virt. eigenvalues --    0.77160   0.80668   0.80929   0.82784   0.84780
 Alpha virt. eigenvalues --    0.88880   0.89274   0.92211   0.95816   1.03148
 Alpha virt. eigenvalues --    1.06764   1.07096   1.10221   1.13901   1.17397
 Alpha virt. eigenvalues --    1.18954   1.19721   1.21965   1.24205   1.25137
 Alpha virt. eigenvalues --    1.25987   1.29954   1.32664   1.37127   1.37855
 Alpha virt. eigenvalues --    1.39687   1.39904   1.41758   1.42440   1.43282
 Alpha virt. eigenvalues --    1.45389   1.46791   1.47940   1.50228   1.54980
 Alpha virt. eigenvalues --    1.63976   1.65278   1.68472   1.70549   1.72190
 Alpha virt. eigenvalues --    1.73839   1.79193   1.81590   1.82096   1.83517
 Alpha virt. eigenvalues --    1.84463   1.87879   1.90900   1.91284   1.95436
 Alpha virt. eigenvalues --    1.97855   2.00372   2.01702   2.03344   2.10695
 Alpha virt. eigenvalues --    2.15800   2.16888   2.23405   2.27612   2.32845
 Alpha virt. eigenvalues --    2.34888   2.35773   2.38818   2.43948   2.47382
 Alpha virt. eigenvalues --    2.50362   2.53252   2.57639   2.60293   2.63628
 Alpha virt. eigenvalues --    2.64241   2.65278   2.67074   2.69167   2.71757
 Alpha virt. eigenvalues --    2.74498   2.82728   2.86091   2.88698   2.91484
 Alpha virt. eigenvalues --    2.95296   2.96441   3.08825   3.11749   3.21259
 Alpha virt. eigenvalues --    3.22991   3.28150   3.33213   3.43838   3.46016
 Alpha virt. eigenvalues --    3.55480   3.57917   3.59371   3.64625   4.29260
 Alpha virt. eigenvalues --    4.34013   4.41160   4.52791   4.58536   4.61534
 Alpha virt. eigenvalues --    4.75967   4.82210
          Condensed to atoms (all electrons):
               1          2          3          4          5          6
     1  C    4.907404   0.038374  -0.106032   0.037371   0.524152   0.299265
     2  C    0.038374   5.925529   0.011122  -0.023289  -0.121875  -0.312900
     3  C   -0.106032   0.011122   6.115282  -0.006852   0.024394   0.047944
     4  C    0.037371  -0.023289  -0.006852   4.854749  -0.014715  -0.008449
     5  O    0.524152  -0.121875   0.024394  -0.014715   8.177414  -0.144014
     6  O    0.299265  -0.312900   0.047944  -0.008449  -0.144014   8.334482
     7  O    0.035455   0.017023  -0.164377   0.527689  -0.002612   0.002075
     8  O    0.000649   0.051485  -0.298714   0.290561  -0.000039  -0.000097
     9  H   -0.045600   0.396012  -0.044753   0.014282  -0.007244   0.012655
    10  H   -0.000085   0.334872  -0.002672  -0.006958  -0.011169  -0.005980
    11  H   -0.010856  -0.040399   0.386990  -0.020526   0.000916   0.000888
    12  H    0.010842  -0.012706   0.321597  -0.011416   0.000801   0.004338
    13  H   -0.015572   0.029527   0.001603  -0.003429   0.004389   0.221439
    14  H    0.000202  -0.005935   0.033310  -0.020532  -0.000220   0.000441
               7          8          9         10         11         12
     1  C    0.035455   0.000649  -0.045600  -0.000085  -0.010856   0.010842
     2  C    0.017023   0.051485   0.396012   0.334872  -0.040399  -0.012706
     3  C   -0.164377  -0.298714  -0.044753  -0.002672   0.386990   0.321597
     4  C    0.527689   0.290561   0.014282  -0.006958  -0.020526  -0.011416
     5  O   -0.002612  -0.000039  -0.007244  -0.011169   0.000916   0.000801
     6  O    0.002075  -0.000097   0.012655  -0.005980   0.000888   0.004338
     7  O    8.166368  -0.141641  -0.010066   0.002543  -0.001614   0.002066
     8  O   -0.141641   8.301489   0.000095  -0.002087  -0.004425   0.001983
     9  H   -0.010066   0.000095   0.497881  -0.037960   0.008201  -0.004076
    10  H    0.002543  -0.002087  -0.037960   0.551521  -0.006799  -0.008800
    11  H   -0.001614  -0.004425   0.008201  -0.006799   0.490235  -0.027557
    12  H    0.002066   0.001983  -0.004076  -0.008800  -0.027557   0.518013
    13  H    0.001246   0.000020  -0.001922   0.000995  -0.002462   0.000571
    14  H    0.006972   0.225000  -0.000244   0.000284  -0.000029  -0.000308
              13         14
     1  C   -0.015572   0.000202
     2  C    0.029527  -0.005935
     3  C    0.001603   0.033310
     4  C   -0.003429  -0.020532
     5  O    0.004389  -0.000220
     6  O    0.221439   0.000441
     7  O    0.001246   0.006972
     8  O    0.000020   0.225000
     9  H   -0.001922  -0.000244
    10  H    0.000995   0.000284
    11  H   -0.002462  -0.000029
    12  H    0.000571  -0.000308
    13  H    0.364716  -0.000107
    14  H   -0.000107   0.369876
 Mulliken charges:
               1
     1  C    0.324434
     2  C   -0.286841
     3  C   -0.318841
     4  C    0.391515
     5  O   -0.430177
     6  O   -0.452088
     7  O   -0.441127
     8  O   -0.424277
     9  H    0.222741
    10  H    0.192294
    11  H    0.227438
    12  H    0.204653
    13  H    0.398987
    14  H    0.391290
 Sum of Mulliken charges =  -0.00000
 Mulliken charges with hydrogens summed into heavy atoms:
               1
     1  C    0.324434
     2  C    0.128194
     3  C    0.113249
     4  C    0.391515
     5  O   -0.430177
     6  O   -0.053101
     7  O   -0.441127
     8  O   -0.032987
 Electronic spatial extent (au):  <R**2>=           1029.7975
 Charge=             -0.0000 electrons
 Dipole moment (field-independent basis, Debye):
    X=              1.9428    Y=              1.6575    Z=              1.8785  Tot=              3.1703
 Quadrupole moment (field-independent basis, Debye-Ang):
   XX=            -47.6174   YY=            -42.5230   ZZ=            -47.7864
   XY=             -2.4807   XZ=             -5.5893   YZ=             -5.0204
 Traceless Quadrupole moment (field-independent basis, Debye-Ang):
   XX=             -1.6418   YY=              3.4526   ZZ=             -1.8108
   XY=             -2.4807   XZ=             -5.5893   YZ=             -5.0204
 Octapole moment (field-independent basis, Debye-Ang**2):
  XXX=             39.6266  YYY=             -3.0236  ZZZ=              4.0537  XYY=             -0.9013
  XXY=            -15.9251  XXZ=             12.6784  XZZ=             -3.6543  YZZ=             -2.2184
  YYZ=              6.7695  XYZ=              3.3345
 Hexadecapole moment (field-independent basis, Debye-Ang**3):
 XXXX=           -848.7521 YYYY=           -204.0865 ZZZZ=           -168.9123 XXXY=            -61.7361
 XXXZ=            -57.2006 YYYX=              2.8771 YYYZ=             -9.7450 ZZZX=             -9.0768
 ZZZY=             -9.3112 XXYY=           -152.5333 XXZZ=           -173.4827 YYZZ=            -60.8888
 XXYZ=            -20.9110 YYXZ=             -5.6673 ZZXY=             10.6136
 N-N= 3.803469289183D+02 E-N=-1.831209251065D+03  KE= 4.528705863912D+02
 No NMR shielding tensors so no spin-rotation constants.
 Leave Link  601 at Wed Jun  8 18:11:19 2022, MaxMem=   131072000 cpu:              14.4 elap:               0.2
 (Enter /home/scc/software/G16/g16/l701.exe)
 ... and contract with generalized density number  0.
 Compute integral first derivatives.
 R6Disp: Adding Grimme-D2 dispersion energy 1st derivatives to the gradient.
 PrsmSu:  requested number of processors reduced to:  37 ShMem   1 Linda.
 PrsmSu:  requested number of processors reduced to:  61 ShMem   1 Linda.
 Leave Link  701 at Wed Jun  8 18:11:19 2022, MaxMem=   131072000 cpu:              15.8 elap:               0.3
 (Enter /home/scc/software/G16/g16/l702.exe)
 L702 exits ... SP integral derivatives will be done elsewhere.
 Leave Link  702 at Wed Jun  8 18:11:20 2022, MaxMem=   131072000 cpu:               8.3 elap:               0.1
 (Enter /home/scc/software/G16/g16/l703.exe)
 Integral derivatives from FoFJK, PRISM(SPDF).
 Compute integral first derivatives, UseDBF=F ICtDFT=           0.
 Calling FoFJK, ICntrl=      2127 FMM=F ISym2X=0 I1Cent= 0 IOpClX= 0 NMat=1 NMatS=1 NMatT=0.
 FoFJK:  IHMeth= 1 ICntrl=    2127 DoSepK=T KAlg= 0 I1Cent=           0 FoldK=F
 IRaf=         1 NMat=       1 IRICut=       1 DoRegI=T DoRafI=F ISym2E= 0 IDoP0=0 IntGTp=1.
 FoFCou: FMM=F IPFlag=           0 FMFlag=      100000 FMFlg1=         800
         NFxFlg=           0 DoJE=F BraDBF=F KetDBF=F FulRan=T
         wScrn=  0.000000 ICntrl=      2527 IOpCl=  0 I1Cent=           0 NGrid=           0
         NMat0=    1 NMatS0=      1 NMatT0=    0 NMatD0=    1 NMtDS0=    0 NMtDT0=    0
 Symmetry not used in FoFCou.
 CoulSu:  requested number of processors reduced to:  61 ShMem   1 Linda.
 CoulSu:  requested number of processors reduced to:  61 ShMem   1 Linda.
 Leave Link  703 at Wed Jun  8 18:11:22 2022, MaxMem=   131072000 cpu:             117.1 elap:               1.9
 (Enter /home/scc/software/G16/g16/l716.exe)
 Dipole        = 7.64350757D-01 6.52122682D-01 7.39051545D-01
 ***** Axes restored to original set *****
 -------------------------------------------------------------------
 Center     Atomic                   Forces (Hartrees/Bohr)
 Number     Number              X              Y              Z
 -------------------------------------------------------------------
      1        6          -0.010597183   -0.003133718    0.007662331
      2        6          -0.000010577    0.001106693    0.000770024
      3        6           0.001317322    0.002085964   -0.001244815
      4        6          -0.003534446   -0.007779776    0.006571160
      5        8           0.005868051    0.002457787   -0.003166981
      6        8           0.003608070    0.000080341   -0.004867299
      7        8           0.001186492    0.004775550   -0.003492921
      8        8           0.003618210    0.002694871   -0.003206364
      9        1          -0.000166188    0.000016223   -0.001086927
     10        1           0.000095526   -0.000186205    0.000393040
     11        1          -0.000039704    0.000069790    0.001050193
     12        1           0.000075865   -0.000268845   -0.000651945
     13        1          -0.001236781   -0.000739239    0.000467719
     14        1          -0.000184657   -0.001179436    0.000802786
 -------------------------------------------------------------------
 Cartesian Forces:  Max     0.010597183 RMS     0.003338577
 Leave Link  716 at Wed Jun  8 18:11:22 2022, MaxMem=   131072000 cpu:               7.3 elap:               0.1
 (Enter /home/scc/software/G16/g16/l103.exe)

 GradGradGradGradGradGradGradGradGradGradGradGradGradGradGradGradGradGrad
 Berny optimization.
 FormGI is forming the generalized inverse of G from B-inverse, IUseBI=4.
 GSVD:  received Info=                   1 from GESDD.
 Internal  Forces:  Max     0.007086750 RMS     0.001669650
 Search for a local minimum.
 Step number   1 out of a maximum of   68
 All quantities printed in internal units (Hartrees-Bohrs-Radians)
 RMS Force = .16696D-02 SwitMx=.10000D-02 MixMth= 1
 Mixed Optimization -- RFO/linear search
 Second derivative matrix not updated -- first step.
 ITU=  0
     Eigenvalues ---    0.00413   0.00559   0.00609   0.00975   0.01014
     Eigenvalues ---    0.02261   0.02315   0.03774   0.04084   0.05235
     Eigenvalues ---    0.05293   0.09510   0.09986   0.12858   0.13173
     Eigenvalues ---    0.16000   0.16000   0.21918   0.22010   0.24986
     Eigenvalues ---    0.25000   0.25000   0.25000   0.29735   0.30792
     Eigenvalues ---    0.31162   0.34201   0.34317   0.34563   0.34785
     Eigenvalues ---    0.53560   0.53604   0.53633   0.54418   1.02833
     Eigenvalues ---    1.04014
 RFO step:  Lambda=-3.29588041D-04 EMin= 4.13425082D-03
 Linear search not attempted -- first point.
 Iteration  1 RMS(Cart)=  0.01828804 RMS(Int)=  0.00008655
 Iteration  2 RMS(Cart)=  0.00013269 RMS(Int)=  0.00000951
 Iteration  3 RMS(Cart)=  0.00000001 RMS(Int)=  0.00000951
 ITry= 1 IFail=0 DXMaxC= 5.78D-02 DCOld= 1.00D+10 DXMaxT= 3.00D-01 DXLimC= 3.00D+00 Rises=F
 Variable       Old X    -DE/DX   Delta X   Delta X   Delta X     New X
                                 (Linear)    (Quad)   (Total)
    R1        2.86411  -0.00239   0.00000  -0.00775  -0.00775   2.85636
    R2        2.27073   0.00709   0.00000   0.00681   0.00681   2.27754
    R3        2.56434  -0.00479   0.00000  -0.00894  -0.00894   2.55541
    R4        2.88495  -0.00229   0.00000  -0.00770  -0.00770   2.87725
    R5        2.06025   0.00109   0.00000   0.00313   0.00313   2.06338
    R6        2.06993   0.00028   0.00000   0.00082   0.00082   2.07075
    R7        2.85705  -0.00195   0.00000  -0.00625  -0.00625   2.85080
    R8        2.06390   0.00104   0.00000   0.00301   0.00301   2.06691
    R9        2.06799   0.00037   0.00000   0.00108   0.00108   2.06907
   R10        2.27525   0.00599   0.00000   0.00583   0.00583   2.28108
   R11        2.55653  -0.00416   0.00000  -0.00765  -0.00765   2.54889
   R12        1.83068  -0.00125   0.00000  -0.00233  -0.00233   1.82835
   R13        1.83094  -0.00113   0.00000  -0.00210  -0.00210   1.82884
    A1        2.17794  -0.00014   0.00000  -0.00076  -0.00080   2.17714
    A2        1.96411   0.00130   0.00000   0.00501   0.00497   1.96908
    A3        2.14027  -0.00117   0.00000  -0.00487  -0.00490   2.13537
    A4        2.02390  -0.00145   0.00000  -0.00744  -0.00744   2.01646
    A5        1.85665   0.00053   0.00000   0.00277   0.00277   1.85942
    A6        1.85640   0.00049   0.00000   0.00084   0.00082   1.85722
    A7        1.94390   0.00040   0.00000   0.00240   0.00240   1.94630
    A8        1.90904   0.00019   0.00000  -0.00071  -0.00072   1.90831
    A9        1.86573  -0.00007   0.00000   0.00290   0.00290   1.86863
   A10        1.96488  -0.00037   0.00000  -0.00247  -0.00247   1.96241
   A11        1.94579   0.00029   0.00000   0.00204   0.00204   1.94783
   A12        1.92838  -0.00030   0.00000  -0.00315  -0.00315   1.92523
   A13        1.88408  -0.00008   0.00000  -0.00098  -0.00098   1.88310
   A14        1.88030   0.00034   0.00000   0.00148   0.00147   1.88178
   A15        1.85577   0.00015   0.00000   0.00345   0.00345   1.85922
   A16        2.19451   0.00025   0.00000   0.00100   0.00100   2.19551
   A17        1.94384   0.00108   0.00000   0.00432   0.00432   1.94816
   A18        2.14481  -0.00133   0.00000  -0.00531  -0.00531   2.13950
   A19        1.85621   0.00156   0.00000   0.00975   0.00975   1.86596
   A20        1.86116   0.00164   0.00000   0.01024   0.01024   1.87140
    D1       -2.75662  -0.00023   0.00000  -0.01881  -0.01881  -2.77542
    D2       -0.58458  -0.00028   0.00000  -0.01861  -0.01862  -0.60320
    D3        1.39998   0.00010   0.00000  -0.01370  -0.01371   1.38627
    D4        0.42866  -0.00006   0.00000  -0.00301  -0.00300   0.42566
    D5        2.60070  -0.00012   0.00000  -0.00282  -0.00281   2.59788
    D6       -1.69793   0.00026   0.00000   0.00210   0.00210  -1.69583
    D7        3.13503  -0.00004   0.00000  -0.00637  -0.00635   3.12868
    D8        0.03604   0.00010   0.00000   0.00893   0.00891   0.04495
    D9        1.13691  -0.00009   0.00000  -0.02080  -0.02080   1.11611
   D10       -0.98352   0.00006   0.00000  -0.01924  -0.01924  -1.00276
   D11       -3.04316  -0.00012   0.00000  -0.02280  -0.02280  -3.06596
   D12       -0.98940  -0.00003   0.00000  -0.02081  -0.02081  -1.01021
   D13       -3.10983   0.00013   0.00000  -0.01925  -0.01925  -3.12908
   D14        1.11371  -0.00005   0.00000  -0.02281  -0.02281   1.09090
   D15       -3.04790  -0.00031   0.00000  -0.02538  -0.02538  -3.07328
   D16        1.11486  -0.00015   0.00000  -0.02383  -0.02382   1.09104
   D17       -0.94478  -0.00033   0.00000  -0.02739  -0.02738  -0.97217
   D18        0.01191  -0.00010   0.00000   0.00512   0.00512   0.01703
   D19       -3.13522  -0.00010   0.00000   0.00576   0.00576  -3.12947
   D20        2.16709  -0.00004   0.00000   0.00537   0.00537   2.17246
   D21       -0.98005  -0.00003   0.00000   0.00601   0.00601  -0.97404
   D22       -2.11862   0.00027   0.00000   0.00964   0.00964  -2.10898
   D23        1.01743   0.00027   0.00000   0.01028   0.01028   1.02771
   D24        3.14128  -0.00002   0.00000  -0.00094  -0.00094   3.14034
   D25       -0.00567  -0.00001   0.00000  -0.00030  -0.00030  -0.00597
         Item               Value     Threshold  Converged?
 Maximum Force            0.007087     0.000450     NO 
 RMS     Force            0.001670     0.000300     NO 
 Maximum Displacement     0.057761     0.001800     NO 
 RMS     Displacement     0.018320     0.001200     NO 
 Predicted change in Energy=-1.658981D-04
 Lowest energy point so far.  Saving SCF results.
 GradGradGradGradGradGradGradGradGradGradGradGradGradGradGradGradGradGrad

 Leave Link  103 at Wed Jun  8 18:11:22 2022, MaxMem=   131072000 cpu:               9.5 elap:               0.2
 (Enter /home/scc/software/G16/g16/l202.exe)
                          Input orientation:                          
 ---------------------------------------------------------------------
 Center     Atomic      Atomic             Coordinates (Angstroms)
 Number     Number       Type             X           Y           Z
 ---------------------------------------------------------------------
      1          6           0        1.618892    0.013274    0.019295
      2          6           0        0.696520   -1.086969   -0.453349
      3          6           0       -0.689569   -1.097238    0.176637
      4          6           0       -1.486978    0.136648   -0.166112
      5          8           0        2.582204    0.409660   -0.586898
      6          8           0        1.297550    0.474906    1.249031
      7          8           0       -1.115702    1.044197   -0.870090
      8          8           0       -2.705380    0.117530    0.412183
      9          1           0        0.641659   -1.000930   -1.540466
     10          1           0        1.203271   -2.032717   -0.230803
     11          1           0       -0.635964   -1.170698    1.266614
     12          1           0       -1.256590   -1.968678   -0.166727
     13          1           0        1.943214    1.160835    1.469746
     14          1           0       -3.158428    0.932490    0.152968
 ---------------------------------------------------------------------
                    Distance matrix (angstroms):
                    1          2          3          4          5
     1  C    0.000000
     2  C    1.511521   0.000000
     3  C    2.566513   1.522574   0.000000
     4  C    3.113844   2.519406   1.508580   0.000000
     5  O    1.205223   2.411128   3.682150   4.099980   0.000000
     6  O    1.352263   2.387213   2.751420   3.141758   2.241702
     7  O    3.054802   2.828372   2.421358   1.207094   3.762624
     8  O    4.343336   3.711184   2.365299   1.348812   5.389068
     9  H    2.101535   1.091895   2.174830   2.777414   2.581622
    10  H    2.102705   1.095793   2.150342   3.456554   2.827272
    11  H    2.835837   2.177337   1.093764   2.118037   4.036043
    12  H    3.497304   2.161990   1.094906   2.117895   4.535347
    13  H    1.877735   3.210165   3.701699   3.935887   2.280867
    14  H    4.866787   4.393911   3.196188   1.878542   5.811678
                    6          7          8          9         10
     6  O    0.000000
     7  O    3.261680   0.000000
     8  O    4.105056   2.242769   0.000000
     9  H    3.223287   2.778537   4.033170   0.000000
    10  H    2.913241   3.905601   4.507166   1.759320   0.000000
    11  H    2.539054   3.114709   2.583035   3.088825   2.523514
    12  H    3.807769   3.097093   2.605071   2.535161   2.461528
    13  H    0.967520   3.852973   4.880200   3.927932   3.692987
    14  H    4.611559   2.287325   0.967783   4.587645   5.288114
                   11         12         13         14
    11  H    0.000000
    12  H    1.753972   0.000000
    13  H    3.482738   4.765568   0.000000
    14  H    3.467914   3.483672   5.273784   0.000000
 Stoichiometry    C4H6O4
 Framework group  C1[X(C4H6O4)]
 Deg. of freedom    36
 Full point group                 C1      NOp   1
 RotChk:  IX=0 Diff= 5.10D-02
 Largest Abelian subgroup         C1      NOp   1
 Largest concise Abelian subgroup C1      NOp   1
                         Standard orientation:                         
 ---------------------------------------------------------------------
 Center     Atomic      Atomic             Coordinates (Angstroms)
 Number     Number       Type             X           Y           Z
 ---------------------------------------------------------------------
      1          6           0       -1.618132   -0.014202    0.025907
      2          6           0       -0.698980    1.103143   -0.411583
      3          6           0        0.690125    1.092330    0.211716
      4          6           0        1.486909   -0.127729   -0.178673
      5          8           0       -2.584024   -0.389680   -0.589422
      6          8           0       -1.290469   -0.519099    1.236829
      7          8           0        1.113005   -1.009953   -0.912806
      8          8           0        2.708073   -0.128024    0.394088
      9          1           0       -0.649295    1.056011   -1.501329
     10          1           0       -1.205448    2.039832   -0.152997
     11          1           0        0.641720    1.126790    1.303865
     12          1           0        1.254746    1.976043   -0.103042
     13          1           0       -1.934481   -1.213122    1.436014
     14          1           0        3.160551   -0.932754    0.103782
 ---------------------------------------------------------------------
 Rotational constants (GHZ):           4.2084657           1.2261743           1.1932604
 Leave Link  202 at Wed Jun  8 18:11:22 2022, MaxMem=   131072000 cpu:               5.4 elap:               0.1
 (Enter /home/scc/software/G16/g16/l301.exe)
 Standard basis: 6-31++G(d,p) (6D, 7F)
 Ernie: Thresh=  0.10000D-02 Tol=  0.10000D-05 Strict=F.
 There are   188 symmetry adapted cartesian basis functions of A   symmetry.
 There are   188 symmetry adapted basis functions of A   symmetry.
   188 basis functions,   304 primitive gaussians,   188 cartesian basis functions
    31 alpha electrons       31 beta electrons
       nuclear repulsion energy       381.3808040827 Hartrees.
 IExCor= 4639 DFT=T Ex+Corr=wB97XD ExCW=0 ScaHFX=  1.000000
 ScaDFX=  1.000000  1.000000  1.000000  1.000000 ScalE2=  1.000000  1.000000
 IRadAn=      5 IRanWt=     -1 IRanGd=            0 ICorTp=0 IEmpDi=121
 HFx  wShort=  0.000000 wLong=  0.200000 cFull=  0.222036 cShort=  0.000000 cLong=  0.777964
 DFx  wShort=  0.000000 wLong=  0.200000 cFull=  0.000000 cShort=  0.000000 cLong=  1.000000
 NAtoms=   14 NActive=   14 NUniq=   14 SFac= 1.00D+00 NAtFMM=   60 NAOKFM=F Big=F
 Integral buffers will be    131072 words long.
 Raffenetti 2 integral format.
 Two-electron integral symmetry is turned on.
 R6Disp:  Grimme-D2 Dispersion energy=       -0.0060150181 Hartrees.
 Nuclear repulsion after empirical dispersion term =      381.3747890646 Hartrees.
 Leave Link  301 at Wed Jun  8 18:11:22 2022, MaxMem=   131072000 cpu:               8.6 elap:               0.1
 (Enter /home/scc/software/G16/g16/l302.exe)
 NPDir=0 NMtPBC=     1 NCelOv=     1 NCel=       1 NClECP=     1 NCelD=      1
         NCelK=      1 NCelE2=     1 NClLst=     1 CellRange=     0.0.
 One-electron integrals computed using PRISM.
 One-electron integral symmetry used in STVInt
 PrsmSu:  requested number of processors reduced to:  37 ShMem   1 Linda.
 NBasis=   188 RedAO= T EigKep=  5.75D-05  NBF=   188
 NBsUse=   188 1.00D-06 EigRej= -1.00D+00 NBFU=   188
 Precomputing XC quadrature grid using
 IXCGrd= 4 IRadAn=           5 IRanWt=          -1 IRanGd=           0 AccXCQ= 0.00D+00.
 Generated NRdTot=       0 NPtTot=           0 NUsed=           0 NTot=          32
 NSgBfM=   188   188   188   188   188 MxSgAt=    14 MxSgA2=    14.
 Leave Link  302 at Wed Jun  8 18:11:23 2022, MaxMem=   131072000 cpu:              28.8 elap:               0.5
 (Enter /home/scc/software/G16/g16/l303.exe)
 DipDrv:  MaxL=1.
 Leave Link  303 at Wed Jun  8 18:11:23 2022, MaxMem=   131072000 cpu:               7.3 elap:               0.1
 (Enter /home/scc/software/G16/g16/l401.exe)
 Initial guess from the checkpoint file:  "/tmp/Gau-138018.chk"
 B after Tr=    -0.000000    0.000000   -0.000000
         Rot=    0.999834   -0.018098   -0.002267   -0.000070 Ang=  -2.09 deg.
 Guess basis will be translated and rotated to current coordinates.
 JPrj=2 DoOrth=T DoCkMO=T.
 Generating alternative initial guess.
 ExpMin= 3.60D-02 ExpMax= 5.48D+03 ExpMxC= 8.25D+02 IAcc=3 IRadAn=         5 AccDes= 0.00D+00
 Harris functional with IExCor= 4639 and IRadAn=       5 diagonalized for initial guess.
 HarFok:  IExCor= 4639 AccDes= 0.00D+00 IRadAn=         5 IDoV= 1 UseB2=F ITyADJ=14
 ICtDFT=  3500011 ScaDFX=  1.000000  1.000000  1.000000  1.000000
 FoFCou: FMM=F IPFlag=           0 FMFlag=      100000 FMFlg1=           0
         NFxFlg=           0 DoJE=T BraDBF=F KetDBF=T FulRan=T
         wScrn=  0.000000 ICntrl=       500 IOpCl=  0 I1Cent=   200000004 NGrid=           0
         NMat0=    1 NMatS0=      1 NMatT0=    0 NMatD0=    1 NMtDS0=    0 NMtDT0=    0
 Petite list used in FoFCou.
 Harris En= -439.339366918289    
 Leave Link  401 at Wed Jun  8 18:11:23 2022, MaxMem=   131072000 cpu:              31.8 elap:               0.5
 (Enter /home/scc/software/G16/g16/l502.exe)
 Integral symmetry usage will be decided dynamically.
 Closed shell SCF:
 Using DIIS extrapolation, IDIIS=  1040.
 NGot=   131072000 LenX=   130987294 LenY=   130951509
 Requested convergence on RMS density matrix=1.00D-08 within 128 cycles.
 Requested convergence on MAX density matrix=1.00D-06.
 Requested convergence on             energy=1.00D-06.
 No special actions if energy rises.
 Fock matrices will be formed incrementally for  20 cycles.

 Cycle   1  Pass 1  IDiag  1:
 FoFJK:  IHMeth= 1 ICntrl=       0 DoSepK=T KAlg= 0 I1Cent=           0 FoldK=F
 IRaf=         1 NMat=       1 IRICut=       1 DoRegI=T DoRafI=F ISym2E= 0 IDoP0=0 IntGTp=1.
 FoFCou: FMM=F IPFlag=           0 FMFlag=      100000 FMFlg1=           0
         NFxFlg=           0 DoJE=T BraDBF=F KetDBF=F FulRan=T
         wScrn=  0.000000 ICntrl=       500 IOpCl=  0 I1Cent=           0 NGrid=           0
         NMat0=    1 NMatS0=      1 NMatT0=    0 NMatD0=    1 NMtDS0=    0 NMtDT0=    0
 Symmetry not used in FoFCou.
 E= -456.860030834752    
 DIIS: error= 5.34D-04 at cycle   1 NSaved=   1.
 NSaved= 1 IEnMin= 1 EnMin= -456.860030834752     IErMin= 1 ErrMin= 5.34D-04
 ErrMax= 5.34D-04  0.00D+00 EMaxC= 1.00D-01 BMatC= 2.53D-04 BMatP= 2.53D-04
 IDIUse=3 WtCom= 9.95D-01 WtEn= 5.34D-03
 Coeff-Com:  0.100D+01
 Coeff-En:   0.100D+01
 Coeff:      0.100D+01
 Gap=     0.618 Goal=   None    Shift=    0.000
 RMSDP=2.41D-04 MaxDP=6.69D-03              OVMax= 4.14D-03

 Cycle   2  Pass 1  IDiag  1:
 RMSU=  2.39D-04    CP:  1.00D+00
 E= -456.860439118193     Delta-E=       -0.000408283441 Rises=F Damp=F
 DIIS: error= 2.18D-04 at cycle   2 NSaved=   2.
 NSaved= 2 IEnMin= 2 EnMin= -456.860439118193     IErMin= 2 ErrMin= 2.18D-04
 ErrMax= 2.18D-04  0.00D+00 EMaxC= 1.00D-01 BMatC= 1.98D-05 BMatP= 2.53D-04
 IDIUse=3 WtCom= 9.98D-01 WtEn= 2.18D-03
 Coeff-Com: -0.665D-01 0.107D+01
 Coeff-En:   0.000D+00 0.100D+01
 Coeff:     -0.664D-01 0.107D+01
 Gap=     0.407 Goal=   None    Shift=    0.000
 RMSDP=6.12D-05 MaxDP=1.45D-03 DE=-4.08D-04 OVMax= 2.26D-03

 Cycle   3  Pass 1  IDiag  1:
 RMSU=  5.60D-05    CP:  1.00D+00  1.10D+00
 E= -456.860452257940     Delta-E=       -0.000013139746 Rises=F Damp=F
 DIIS: error= 2.49D-04 at cycle   3 NSaved=   3.
 NSaved= 3 IEnMin= 3 EnMin= -456.860452257940     IErMin= 2 ErrMin= 2.18D-04
 ErrMax= 2.49D-04  0.00D+00 EMaxC= 1.00D-01 BMatC= 2.80D-05 BMatP= 1.98D-05
 IDIUse=3 WtCom= 3.88D-01 WtEn= 6.12D-01
 Coeff-Com: -0.115D+00 0.637D+00 0.479D+00
 Coeff-En:   0.000D+00 0.215D+00 0.785D+00
 Coeff:     -0.447D-01 0.378D+00 0.666D+00
 Gap=     0.406 Goal=   None    Shift=    0.000
 RMSDP=4.45D-05 MaxDP=1.33D-03 DE=-1.31D-05 OVMax= 2.13D-03

 Cycle   4  Pass 1  IDiag  1:
 RMSU=  3.22D-05    CP:  1.00D+00  1.16D+00  5.29D-01
 E= -456.860464661913     Delta-E=       -0.000012403973 Rises=F Damp=F
 DIIS: error= 1.58D-04 at cycle   4 NSaved=   4.
 NSaved= 4 IEnMin= 4 EnMin= -456.860464661913     IErMin= 4 ErrMin= 1.58D-04
 ErrMax= 1.58D-04  0.00D+00 EMaxC= 1.00D-01 BMatC= 1.21D-05 BMatP= 1.98D-05
 IDIUse=3 WtCom= 9.98D-01 WtEn= 1.58D-03
 Coeff-Com: -0.169D-02-0.112D+00 0.403D+00 0.711D+00
 Coeff-En:   0.000D+00 0.000D+00 0.306D+00 0.694D+00
 Coeff:     -0.168D-02-0.112D+00 0.403D+00 0.711D+00
 Gap=     0.406 Goal=   None    Shift=    0.000
 RMSDP=1.77D-05 MaxDP=5.81D-04 DE=-1.24D-05 OVMax= 8.83D-04

 Cycle   5  Pass 1  IDiag  1:
 RMSU=  4.96D-06    CP:  1.00D+00  1.16D+00  8.12D-01  8.29D-01
 E= -456.860473633675     Delta-E=       -0.000008971762 Rises=F Damp=F
 DIIS: error= 8.79D-06 at cycle   5 NSaved=   5.
 NSaved= 5 IEnMin= 5 EnMin= -456.860473633675     IErMin= 5 ErrMin= 8.79D-06
 ErrMax= 8.79D-06  0.00D+00 EMaxC= 1.00D-01 BMatC= 4.27D-08 BMatP= 1.21D-05
 IDIUse=1 WtCom= 1.00D+00 WtEn= 0.00D+00
 Coeff-Com:  0.835D-02-0.798D-01 0.670D-01 0.187D+00 0.817D+00
 Coeff:      0.835D-02-0.798D-01 0.670D-01 0.187D+00 0.817D+00
 Gap=     0.406 Goal=   None    Shift=    0.000
 RMSDP=2.92D-06 MaxDP=6.97D-05 DE=-8.97D-06 OVMax= 1.57D-04

 Cycle   6  Pass 1  IDiag  1:
 RMSU=  2.04D-06    CP:  1.00D+00  1.16D+00  8.18D-01  8.72D-01  1.28D+00
 E= -456.860473723085     Delta-E=       -0.000000089410 Rises=F Damp=F
 DIIS: error= 3.63D-06 at cycle   6 NSaved=   6.
 NSaved= 6 IEnMin= 6 EnMin= -456.860473723085     IErMin= 6 ErrMin= 3.63D-06
 ErrMax= 3.63D-06  0.00D+00 EMaxC= 1.00D-01 BMatC= 7.61D-09 BMatP= 4.27D-08
 IDIUse=1 WtCom= 1.00D+00 WtEn= 0.00D+00
 Coeff-Com:  0.305D-02-0.110D-01-0.371D-01-0.389D-01 0.259D+00 0.825D+00
 Coeff:      0.305D-02-0.110D-01-0.371D-01-0.389D-01 0.259D+00 0.825D+00
 Gap=     0.406 Goal=   None    Shift=    0.000
 RMSDP=1.45D-06 MaxDP=3.38D-05 DE=-8.94D-08 OVMax= 8.58D-05

 Cycle   7  Pass 1  IDiag  1:
 RMSU=  7.09D-07    CP:  1.00D+00  1.16D+00  8.17D-01  8.86D-01  1.48D+00
                    CP:  1.28D+00
 E= -456.860473740952     Delta-E=       -0.000000017867 Rises=F Damp=F
 DIIS: error= 1.46D-06 at cycle   7 NSaved=   7.
 NSaved= 7 IEnMin= 7 EnMin= -456.860473740952     IErMin= 7 ErrMin= 1.46D-06
 ErrMax= 1.46D-06  0.00D+00 EMaxC= 1.00D-01 BMatC= 1.19D-09 BMatP= 7.61D-09
 IDIUse=1 WtCom= 1.00D+00 WtEn= 0.00D+00
 Coeff-Com: -0.437D-03 0.938D-02-0.206D-01-0.392D-01-0.522D-01 0.240D+00
 Coeff-Com:  0.863D+00
 Coeff:     -0.437D-03 0.938D-02-0.206D-01-0.392D-01-0.522D-01 0.240D+00
 Coeff:      0.863D+00
 Gap=     0.406 Goal=   None    Shift=    0.000
 RMSDP=6.88D-07 MaxDP=1.75D-05 DE=-1.79D-08 OVMax= 4.06D-05

 Cycle   8  Pass 1  IDiag  1:
 RMSU=  3.00D-07    CP:  1.00D+00  1.16D+00  8.13D-01  8.88D-01  1.55D+00
                    CP:  1.48D+00  1.25D+00
 E= -456.860473743939     Delta-E=       -0.000000002987 Rises=F Damp=F
 DIIS: error= 1.04D-06 at cycle   8 NSaved=   8.
 NSaved= 8 IEnMin= 8 EnMin= -456.860473743939     IErMin= 8 ErrMin= 1.04D-06
 ErrMax= 1.04D-06  0.00D+00 EMaxC= 1.00D-01 BMatC= 3.19D-10 BMatP= 1.19D-09
 IDIUse=1 WtCom= 1.00D+00 WtEn= 0.00D+00
 Coeff-Com: -0.776D-03 0.627D-02-0.137D-02-0.919D-02-0.744D-01-0.585D-01
 Coeff-Com:  0.393D+00 0.745D+00
 Coeff:     -0.776D-03 0.627D-02-0.137D-02-0.919D-02-0.744D-01-0.585D-01
 Coeff:      0.393D+00 0.745D+00
 Gap=     0.406 Goal=   None    Shift=    0.000
 RMSDP=2.50D-07 MaxDP=5.62D-06 DE=-2.99D-09 OVMax= 1.71D-05

 Cycle   9  Pass 1  IDiag  1:
 RMSU=  1.44D-07    CP:  1.00D+00  1.16D+00  8.13D-01  8.87D-01  1.58D+00
                    CP:  1.53D+00  1.38D+00  1.04D+00
 E= -456.860473744516     Delta-E=       -0.000000000577 Rises=F Damp=F
 DIIS: error= 3.12D-07 at cycle   9 NSaved=   9.
 NSaved= 9 IEnMin= 9 EnMin= -456.860473744516     IErMin= 9 ErrMin= 3.12D-07
 ErrMax= 3.12D-07  0.00D+00 EMaxC= 1.00D-01 BMatC= 3.42D-11 BMatP= 3.19D-10
 IDIUse=1 WtCom= 1.00D+00 WtEn= 0.00D+00
 Coeff-Com: -0.264D-03 0.159D-02 0.130D-02-0.157D-03-0.230D-01-0.437D-01
 Coeff-Com:  0.610D-01 0.274D+00 0.729D+00
 Coeff:     -0.264D-03 0.159D-02 0.130D-02-0.157D-03-0.230D-01-0.437D-01
 Coeff:      0.610D-01 0.274D+00 0.729D+00
 Gap=     0.406 Goal=   None    Shift=    0.000
 RMSDP=7.08D-08 MaxDP=2.05D-06 DE=-5.77D-10 OVMax= 4.73D-06

 Cycle  10  Pass 1  IDiag  1:
 RMSU=  4.43D-08    CP:  1.00D+00  1.16D+00  8.13D-01  8.87D-01  1.57D+00
                    CP:  1.54D+00  1.41D+00  1.18D+00  1.15D+00
 E= -456.860473744569     Delta-E=       -0.000000000053 Rises=F Damp=F
 DIIS: error= 2.05D-07 at cycle  10 NSaved=  10.
 NSaved=10 IEnMin=10 EnMin= -456.860473744569     IErMin=10 ErrMin= 2.05D-07
 ErrMax= 2.05D-07  0.00D+00 EMaxC= 1.00D-01 BMatC= 1.09D-11 BMatP= 3.42D-11
 IDIUse=1 WtCom= 1.00D+00 WtEn= 0.00D+00
 Coeff-Com:  0.963D-04-0.105D-02 0.102D-02 0.255D-02 0.106D-01-0.430D-02
 Coeff-Com: -0.866D-01-0.818D-01 0.385D+00 0.775D+00
 Coeff:      0.963D-04-0.105D-02 0.102D-02 0.255D-02 0.106D-01-0.430D-02
 Coeff:     -0.866D-01-0.818D-01 0.385D+00 0.775D+00
 Gap=     0.406 Goal=   None    Shift=    0.000
 RMSDP=4.16D-08 MaxDP=8.33D-07 DE=-5.32D-11 OVMax= 2.67D-06

 Cycle  11  Pass 1  IDiag  1:
 RMSU=  1.96D-08    CP:  1.00D+00  1.16D+00  8.13D-01  8.87D-01  1.57D+00
                    CP:  1.54D+00  1.42D+00  1.23D+00  1.36D+00  1.07D+00
 E= -456.860473744586     Delta-E=       -0.000000000017 Rises=F Damp=F
 DIIS: error= 2.76D-08 at cycle  11 NSaved=  11.
 NSaved=11 IEnMin=11 EnMin= -456.860473744586     IErMin=11 ErrMin= 2.76D-08
 ErrMax= 2.76D-08  0.00D+00 EMaxC= 1.00D-01 BMatC= 2.79D-13 BMatP= 1.09D-11
 IDIUse=1 WtCom= 1.00D+00 WtEn= 0.00D+00
 Coeff-Com:  0.368D-04-0.305D-03 0.672D-04 0.462D-03 0.378D-02 0.259D-02
 Coeff-Com: -0.214D-01-0.362D-01 0.185D-01 0.147D+00 0.885D+00
 Coeff:      0.368D-04-0.305D-03 0.672D-04 0.462D-03 0.378D-02 0.259D-02
 Coeff:     -0.214D-01-0.362D-01 0.185D-01 0.147D+00 0.885D+00
 Gap=     0.406 Goal=   None    Shift=    0.000
 RMSDP=1.05D-08 MaxDP=2.38D-07 DE=-1.68D-11 OVMax= 4.89D-07

 Cycle  12  Pass 1  IDiag  1:
 RMSU=  4.86D-09    CP:  1.00D+00  1.16D+00  8.13D-01  8.87D-01  1.57D+00
                    CP:  1.54D+00  1.42D+00  1.24D+00  1.39D+00  1.18D+00
                    CP:  1.14D+00
 E= -456.860473744585     Delta-E=        0.000000000001 Rises=F Damp=F
 DIIS: error= 7.82D-09 at cycle  12 NSaved=  12.
 NSaved=12 IEnMin=11 EnMin= -456.860473744586     IErMin=12 ErrMin= 7.82D-09
 ErrMax= 7.82D-09  0.00D+00 EMaxC= 1.00D-01 BMatC= 3.34D-14 BMatP= 2.79D-13
 IDIUse=1 WtCom= 1.00D+00 WtEn= 0.00D+00
 Coeff-Com: -0.388D-06 0.321D-04-0.976D-04-0.156D-03-0.905D-04 0.123D-02
 Coeff-Com:  0.352D-02-0.104D-02-0.362D-01-0.466D-01 0.225D+00 0.855D+00
 Coeff:     -0.388D-06 0.321D-04-0.976D-04-0.156D-03-0.905D-04 0.123D-02
 Coeff:      0.352D-02-0.104D-02-0.362D-01-0.466D-01 0.225D+00 0.855D+00
 Gap=     0.406 Goal=   None    Shift=    0.000
 RMSDP=3.94D-09 MaxDP=1.12D-07 DE= 1.25D-12 OVMax= 1.19D-07

 SCF Done:  E(RwB97XD) =  -456.860473745     A.U. after   12 cycles
            NFock= 12  Conv=0.39D-08     -V/T= 2.0088
 KE= 4.528815622282D+02 PE=-1.833281788765D+03 EE= 5.421649637276D+02
 Leave Link  502 at Wed Jun  8 18:11:32 2022, MaxMem=   131072000 cpu:             572.8 elap:               9.0
 (Enter /home/scc/software/G16/g16/l701.exe)
 ... and contract with generalized density number  0.
 Compute integral first derivatives.
 R6Disp: Adding Grimme-D2 dispersion energy 1st derivatives to the gradient.
 PrsmSu:  requested number of processors reduced to:  37 ShMem   1 Linda.
 PrsmSu:  requested number of processors reduced to:  61 ShMem   1 Linda.
 Leave Link  701 at Wed Jun  8 18:11:33 2022, MaxMem=   131072000 cpu:              16.6 elap:               0.3
 (Enter /home/scc/software/G16/g16/l702.exe)
 L702 exits ... SP integral derivatives will be done elsewhere.
 Leave Link  702 at Wed Jun  8 18:11:33 2022, MaxMem=   131072000 cpu:               7.1 elap:               0.1
 (Enter /home/scc/software/G16/g16/l703.exe)
 Integral derivatives from FoFJK, PRISM(SPDF).
 Compute integral first derivatives, UseDBF=F ICtDFT=           0.
 Calling FoFJK, ICntrl=      2127 FMM=F ISym2X=0 I1Cent= 0 IOpClX= 0 NMat=1 NMatS=1 NMatT=0.
 FoFJK:  IHMeth= 1 ICntrl=    2127 DoSepK=T KAlg= 0 I1Cent=           0 FoldK=F
 IRaf=         1 NMat=       1 IRICut=       1 DoRegI=T DoRafI=F ISym2E= 0 IDoP0=0 IntGTp=1.
 FoFCou: FMM=F IPFlag=           0 FMFlag=      100000 FMFlg1=         800
         NFxFlg=           0 DoJE=F BraDBF=F KetDBF=F FulRan=T
         wScrn=  0.000000 ICntrl=      2527 IOpCl=  0 I1Cent=           0 NGrid=           0
         NMat0=    1 NMatS0=      1 NMatT0=    0 NMatD0=    1 NMtDS0=    0 NMtDT0=    0
 Symmetry not used in FoFCou.
 CoulSu:  requested number of processors reduced to:  61 ShMem   1 Linda.
 CoulSu:  requested number of processors reduced to:  61 ShMem   1 Linda.
 Leave Link  703 at Wed Jun  8 18:11:35 2022, MaxMem=   131072000 cpu:             123.0 elap:               2.0
 (Enter /home/scc/software/G16/g16/l716.exe)
 Dipole        = 7.99584867D-01 6.32434552D-01 7.74146702D-01
 ***** Axes restored to original set *****
 -------------------------------------------------------------------
 Center     Atomic                   Forces (Hartrees/Bohr)
 Number     Number              X              Y              Z
 -------------------------------------------------------------------
      1        6          -0.001705290   -0.001189782    0.004128059
      2        6           0.000300174    0.000545263   -0.000466156
      3        6          -0.000088136    0.000471091   -0.000204697
      4        6          -0.002784451   -0.001692374    0.002376468
      5        8           0.001583422    0.001015133   -0.001704204
      6        8           0.000522445   -0.000176691   -0.001893660
      7        8           0.000883332    0.001232158   -0.001340884
      8        8           0.001423988    0.000302518   -0.000784891
      9        1          -0.000048182   -0.000143167    0.000090634
     10        1           0.000163312    0.000137564    0.000001391
     11        1          -0.000071534   -0.000136056   -0.000050317
     12        1          -0.000129699    0.000049294   -0.000074698
     13        1          -0.000210969   -0.000186564   -0.000131170
     14        1           0.000161588   -0.000228386    0.000054124
 -------------------------------------------------------------------
 Cartesian Forces:  Max     0.004128059 RMS     0.001154442
 Leave Link  716 at Wed Jun  8 18:11:35 2022, MaxMem=   131072000 cpu:               7.0 elap:               0.1
 (Enter /home/scc/software/G16/g16/l103.exe)

 GradGradGradGradGradGradGradGradGradGradGradGradGradGradGradGradGradGrad
 Berny optimization.
 Using GEDIIS/GDIIS optimizer.
 FormGI is forming the generalized inverse of G from B-inverse, IUseBI=4.
 Internal  Forces:  Max     0.002456485 RMS     0.000586416
 Search for a local minimum.
 Step number   2 out of a maximum of   68
 All quantities printed in internal units (Hartrees-Bohrs-Radians)
 RMS Force = .58642D-03 SwitMx=.10000D-02 MixMth= 2
 Mixed Optimization -- En-DIIS/RFO-DIIS
 Update second derivatives using D2CorX and points    1    2
 DE= -1.85D-04 DEPred=-1.66D-04 R= 1.11D+00
 TightC=F SS=  1.41D+00  RLast= 8.23D-02 DXNew= 5.0454D-01 2.4702D-01
 Trust test= 1.11D+00 RLast= 8.23D-02 DXMaxT set to 3.00D-01
 ITU=  1  0
 Use linear search instead of GDIIS.
     Eigenvalues ---    0.00405   0.00561   0.00600   0.01011   0.01123
     Eigenvalues ---    0.02259   0.02315   0.03807   0.04099   0.05266
     Eigenvalues ---    0.05337   0.09503   0.09939   0.12891   0.13137
     Eigenvalues ---    0.15999   0.16158   0.21872   0.22552   0.23659
     Eigenvalues ---    0.24982   0.25000   0.25849   0.30069   0.31026
     Eigenvalues ---    0.31648   0.34213   0.34302   0.34608   0.35011
     Eigenvalues ---    0.44890   0.53613   0.53675   0.54088   0.92696
     Eigenvalues ---    1.03346
 RFO step:  Lambda=-1.15606686D-04 EMin= 4.05020175D-03
 Quartic linear search produced a step of  0.13390.
 Iteration  1 RMS(Cart)=  0.01632598 RMS(Int)=  0.00019039
 Iteration  2 RMS(Cart)=  0.00022441 RMS(Int)=  0.00010528
 Iteration  3 RMS(Cart)=  0.00000003 RMS(Int)=  0.00010528
 ITry= 1 IFail=0 DXMaxC= 5.53D-02 DCOld= 1.00D+10 DXMaxT= 3.00D-01 DXLimC= 3.00D+00 Rises=F
 Variable       Old X    -DE/DX   Delta X   Delta X   Delta X     New X
                                 (Linear)    (Quad)   (Total)
    R1        2.85636  -0.00015  -0.00104  -0.00225  -0.00329   2.85308
    R2        2.27754   0.00246   0.00091   0.00417   0.00508   2.28262
    R3        2.55541  -0.00204  -0.00120  -0.00627  -0.00747   2.54794
    R4        2.87725   0.00054  -0.00103   0.00037  -0.00066   2.87659
    R5        2.06338  -0.00010   0.00042   0.00036   0.00078   2.06417
    R6        2.07075  -0.00004   0.00011   0.00004   0.00015   2.07090
    R7        2.85080  -0.00022  -0.00084  -0.00216  -0.00300   2.84780
    R8        2.06691  -0.00004   0.00040   0.00051   0.00092   2.06783
    R9        2.06907   0.00005   0.00015   0.00041   0.00055   2.06962
   R10        2.28108   0.00198   0.00078   0.00346   0.00424   2.28532
   R11        2.54889  -0.00175  -0.00102  -0.00531  -0.00634   2.54255
   R12        1.82835  -0.00030  -0.00031  -0.00115  -0.00146   1.82689
   R13        1.82884  -0.00028  -0.00028  -0.00106  -0.00134   1.82751
    A1        2.17714  -0.00052  -0.00011  -0.00158  -0.00215   2.17500
    A2        1.96908   0.00043   0.00067   0.00407   0.00427   1.97335
    A3        2.13537   0.00012  -0.00066   0.00057  -0.00055   2.13483
    A4        2.01646   0.00039  -0.00100   0.00062  -0.00038   2.01608
    A5        1.85942  -0.00000   0.00037   0.00161   0.00198   1.86140
    A6        1.85722  -0.00031   0.00011  -0.00247  -0.00237   1.85486
    A7        1.94630  -0.00020   0.00032  -0.00033  -0.00001   1.94630
    A8        1.90831   0.00008  -0.00010   0.00064   0.00054   1.90885
    A9        1.86863   0.00002   0.00039  -0.00021   0.00018   1.86880
   A10        1.96241   0.00030  -0.00033   0.00123   0.00090   1.96330
   A11        1.94783  -0.00010   0.00027   0.00054   0.00081   1.94864
   A12        1.92523   0.00003  -0.00042  -0.00045  -0.00088   1.92435
   A13        1.88310  -0.00003  -0.00013   0.00050   0.00037   1.88347
   A14        1.88178  -0.00023   0.00020  -0.00193  -0.00174   1.88004
   A15        1.85922   0.00001   0.00046  -0.00001   0.00045   1.85967
   A16        2.19551  -0.00064   0.00013  -0.00268  -0.00256   2.19296
   A17        1.94816   0.00040   0.00058   0.00274   0.00331   1.95147
   A18        2.13950   0.00024  -0.00071  -0.00008  -0.00080   2.13870
   A19        1.86596  -0.00008   0.00131   0.00154   0.00284   1.86880
   A20        1.87140  -0.00007   0.00137   0.00175   0.00312   1.87452
    D1       -2.77542   0.00033  -0.00252   0.03077   0.02824  -2.74718
    D2       -0.60320   0.00033  -0.00249   0.03202   0.02952  -0.57368
    D3        1.38627   0.00021  -0.00184   0.03139   0.02954   1.41582
    D4        0.42566  -0.00021  -0.00040  -0.02663  -0.02702   0.39864
    D5        2.59788  -0.00020  -0.00038  -0.02537  -0.02574   2.57214
    D6       -1.69583  -0.00033   0.00028  -0.02601  -0.02572  -1.72155
    D7        3.12868   0.00029  -0.00085   0.03037   0.02955  -3.12496
    D8        0.04495  -0.00020   0.00119  -0.02537  -0.02420   0.02075
    D9        1.11611   0.00013  -0.00279  -0.00294  -0.00573   1.11038
   D10       -1.00276   0.00002  -0.00258  -0.00486  -0.00744  -1.01020
   D11       -3.06596   0.00005  -0.00305  -0.00489  -0.00794  -3.07391
   D12       -1.01021  -0.00000  -0.00279  -0.00531  -0.00810  -1.01831
   D13       -3.12908  -0.00011  -0.00258  -0.00723  -0.00980  -3.13889
   D14        1.09090  -0.00008  -0.00305  -0.00726  -0.01031   1.08059
   D15       -3.07328   0.00005  -0.00340  -0.00526  -0.00865  -3.08193
   D16        1.09104  -0.00006  -0.00319  -0.00717  -0.01036   1.08067
   D17       -0.97217  -0.00003  -0.00367  -0.00720  -0.01087  -0.98303
   D18        0.01703   0.00010   0.00069   0.01560   0.01628   0.03331
   D19       -3.12947   0.00004   0.00077   0.00946   0.01023  -3.11923
   D20        2.17246   0.00015   0.00072   0.01745   0.01817   2.19062
   D21       -0.97404   0.00010   0.00080   0.01131   0.01211  -0.96192
   D22       -2.10898   0.00003   0.00129   0.01671   0.01800  -2.09098
   D23        1.02771  -0.00003   0.00138   0.01057   0.01195   1.03966
   D24        3.14034   0.00003  -0.00013   0.00296   0.00284  -3.14001
   D25       -0.00597  -0.00003  -0.00004  -0.00296  -0.00300  -0.00897
         Item               Value     Threshold  Converged?
 Maximum Force            0.002456     0.000450     NO 
[...]
 ! A18   A(7,4,8)              122.6256         -DE/DX =    0.0                 !
 ! A19   A(1,6,13)             106.9496         -DE/DX =    0.0                 !
 ! A20   A(4,8,14)             107.2341         -DE/DX =    0.0                 !
 ! D1    D(5,1,2,3)           -160.4264         -DE/DX =    0.0                 !
 ! D2    D(5,1,2,9)            -35.977          -DE/DX =    0.0                 !
 ! D3    D(5,1,2,10)            77.8775         -DE/DX =    0.0                 !
 ! D4    D(6,1,2,3)             22.1883         -DE/DX =    0.0                 !
 ! D5    D(6,1,2,9)            146.6377         -DE/DX =    0.0                 !
 ! D6    D(6,1,2,10)           -99.5078         -DE/DX =    0.0                 !
 ! D7    D(2,1,6,13)           179.7474         -DE/DX =    0.0                 !
 ! D8    D(5,1,6,13)             2.2997         -DE/DX =    0.0                 !
 ! D9    D(1,2,3,4)             64.1062         -DE/DX =    0.0                 !
 ! D10   D(1,2,3,11)           -57.8625         -DE/DX =    0.0                 !
 ! D11   D(1,2,3,12)          -175.9808         -DE/DX =    0.0                 !
 ! D12   D(9,2,3,4)            -57.754          -DE/DX =    0.0                 !
 ! D13   D(9,2,3,11)          -179.7228         -DE/DX =    0.0                 !
 ! D14   D(9,2,3,12)            62.1589         -DE/DX =    0.0                 !
 ! D15   D(10,2,3,4)          -175.8546         -DE/DX =    0.0                 !
 ! D16   D(10,2,3,11)           62.1767         -DE/DX =    0.0                 !
 ! D17   D(10,2,3,12)          -55.9417         -DE/DX =    0.0                 !
 ! D18   D(2,3,4,7)              4.6286         -DE/DX =    0.0                 !
 ! D19   D(2,3,4,8)           -176.0181         -DE/DX =    0.0                 !
 ! D20   D(11,3,4,7)           128.6036         -DE/DX =    0.0                 !
 ! D21   D(11,3,4,8)           -52.0431         -DE/DX =    0.0                 !
 ! D22   D(12,3,4,7)          -116.7986         -DE/DX =    0.0                 !
 ! D23   D(12,3,4,8)            62.5547         -DE/DX =    0.0                 !
 ! D24   D(3,4,8,14)          -179.5438         -DE/DX =    0.0                 !
 ! D25   D(7,4,8,14)            -0.1684         -DE/DX =    0.0                 !
 --------------------------------------------------------------------------------
 GradGradGradGradGradGradGradGradGradGradGradGradGradGradGradGradGradGrad

 Leave Link  103 at Wed Jun  8 18:14:31 2022, MaxMem=   131072000 cpu:              10.6 elap:               0.2
 (Enter /home/scc/software/G16/g16/l9999.exe)

 ----------------------------------------------------------------------

 Electric dipole moment (input orientation):
 (Debye = 10**-18 statcoulomb cm , SI units = C m)
                  (au)            (Debye)         (10**-30 SI)
   Tot        0.128940D+01      0.327733D+01      0.109320D+02
   x         -0.807303D+00     -0.205196D+01     -0.684460D+01
   y         -0.640747D+00     -0.162862D+01     -0.543248D+01
   z          0.774761D+00      0.196925D+01      0.656870D+01

 Dipole polarizability, Alpha (input orientation).
 (esu units = cm**3 , SI units = C**2 m**2 J**-1)
 Alpha(0;0):
               (au)            (10**-24 esu)      (10**-40 SI)
   iso        0.585688D+02      0.867900D+01      0.965669D+01
   aniso      0.163117D+02      0.241715D+01      0.268944D+01
   xx         0.656251D+02      0.972463D+01      0.108201D+02
   yx         0.248509D+01      0.368253D+00      0.409737D+00
   yy         0.562573D+02      0.833647D+01      0.927557D+01
   zx        -0.648187D+01     -0.960515D+00     -0.106872D+01
   zy        -0.129496D+01     -0.191893D+00     -0.213510D+00
   zz         0.538240D+02      0.797590D+01      0.887439D+01

 ----------------------------------------------------------------------

 Dipole orientation:
     6          2.34723089         -0.55258727         -1.89120582
     6          0.86220682         -2.42019197         -0.32254202
     6         -0.38055445         -1.35125578          2.04350629
     6         -2.37455119          0.59594000          1.44653642
     8          2.90429583         -0.86039442         -4.08184132
     8          3.10093075          1.48937541         -0.56487710
     8         -3.08107681          1.17601773         -0.64666205
     8         -3.33761775          1.63878098          3.55687696
     1         -0.52871200         -3.27258434         -1.58551319
     1          2.18935589         -3.91649370          0.21337090
     1          1.00324810         -0.48875534          3.31262705
     1         -1.29414803         -2.86847108          3.11512329
     1          4.03327879          2.55886904         -1.71740997
     1         -4.60397135          2.84935588          3.03349692

 Electric dipole moment (dipole orientation):
 (Debye = 10**-18 statcoulomb cm , SI units = C m)
                  (au)            (Debye)         (10**-30 SI)
   Tot        0.128940D+01      0.327733D+01      0.109320D+02
   x          0.000000D+00      0.000000D+00      0.000000D+00
   y          0.000000D+00      0.000000D+00      0.000000D+00
   z          0.128940D+01      0.327733D+01      0.109320D+02

 Dipole polarizability, Alpha (dipole orientation).
 (esu units = cm**3 , SI units = C**2 m**2 J**-1)
 Alpha(0;0):
               (au)            (10**-24 esu)      (10**-40 SI)
   iso        0.585688D+02      0.867900D+01      0.965669D+01
   aniso      0.163117D+02      0.241715D+01      0.268944D+01
   xx         0.541017D+02      0.801704D+01      0.892016D+01
   yx        -0.265514D+01     -0.393451D+00     -0.437773D+00
   yy         0.553569D+02      0.820304D+01      0.912711D+01
   zx        -0.582046D+01     -0.862503D+00     -0.959665D+00
   zy         0.177288D+01      0.262714D+00      0.292308D+00
   zz         0.662479D+02      0.981692D+01      0.109228D+02

 ----------------------------------------------------------------------
 1\1\GINC-NODE5\Freq\RwB97XD\6-31++G(d,p)\C4H6O4\JIANGSHUAI\08-Jun-2022
 \0\\#P Geom=AllCheck Guess=TCheck SCRF=Check GenChk RwB97XD/6-31++G(d,
 p) Freq\\aaaaa\\0,1\C,1.6213734482,0.0086074634,0.0310371272\C,0.70030
 99304,-1.0870110083,-0.4533188423\C,-0.690153409,-1.1029869395,0.16834
 5786\C,-1.4894204343,0.1305379613,-0.1700786799\O,2.6014372596,0.38961
 98948,-0.5618869833\O,1.2730957901,0.4961883642,1.2394506549\O,-1.1378
 815123,1.0132562532,-0.9171925741\O,-2.6807135554,0.1413598417,0.45608
 62726\H,0.6506216797,-0.9933262113,-1.53989437\H,1.2069638171,-2.03409
 94786,-0.2366797956\H,-0.6463858735,-1.1930331293,1.2571769813\H,-1.25
 42299376,-1.9698527344,-0.192586271\H,1.9175227782,1.1820263716,1.4631
 321278\H,-3.1378399811,0.9510233512,0.1884385663\\Version=ES64L-G16Rev
 A.03\State=1-A\HF=-456.8605205\RMSD=4.010e-09\RMSF=1.599e-05\ZeroPoint
 =0.1076752\Thermal=0.1157326\Dipole=-0.8073031,-0.6407471,0.7747611\Di
 poleDeriv=1.2826246,0.3606791,-0.4770309,0.4446197,0.7934053,0.3437769
 ,-0.4436536,0.3521547,1.4341926,0.0615918,-0.0915749,-0.0152267,-0.150
 799,-0.0869841,-0.0761131,-0.0470295,-0.0521539,0.0253661,0.0424321,0.
 0558464,0.0156371,0.1349242,-0.1436985,0.080915,-0.0470102,0.0712066,0
 .0444334,1.5989785,-0.1163045,-0.5490988,-0.1639217,1.0384887,-0.44396
 57,-0.5761354,-0.4262961,0.8386496,-1.0667471,-0.1956328,0.3884587,-0.
 3672501,-0.5515546,0.0758253,0.227743,-0.0537814,-0.7170607,-0.4964225
 ,0.0116427,0.0939956,0.0818657,-0.5202373,-0.4018582,0.2303154,-0.2958
 808,-1.1572164,-0.7461076,0.0543273,0.1202563,-0.1162864,-0.8407855,0.
 4033086,0.2407286,0.2998086,-0.6743001,-1.3064593,-0.0022227,0.4316913
 ,0.1888545,-0.3814961,-0.0769877,0.3666879,-0.0008379,-0.5600688,0.026
 0441,-0.0376412,-0.0086819,-0.0337272,0.0919966,0.0315906,0.0118913,-0
 .0121603,-0.0252434,-0.024247,0.039714,-0.0129445,0.0449892,-0.0256757
 ,0.0129488,-0.0230052,0.0398871,0.0923316,0.0521396,0.0506632,0.000719
 ,0.0339522,0.0860522,-0.0121874,0.0279055,0.0237008,-0.0307521,-0.0333
 618,-0.0503956,-0.0276938,-0.0475469,-0.0105575,-0.0208795,-0.0283179,
 -0.0571542,0.0863175,0.2495736,-0.0596059,0.0307931,-0.0515858,0.31084
 6,0.0173319,0.0602792,0.0346712,0.3429864,0.359961,-0.019495,0.0091254
 ,0.0019114,0.2402004,0.0662945,-0.0003991,0.0768355,0.3003643\Polar=65
 .6250554,2.4850938,56.2572758,-6.4818745,-1.2949591,53.8240484\Quadrup
 ole=-1.5249081,2.8903342,-1.3654261,-1.7367093,4.0277165,3.8188221\PG=
 C01 [X(C4H6O4)]\NImag=0\\0.78571122,0.27613181,0.48543862,-0.25297081,
 0.05438331,0.61284303,-0.12685200,-0.05052828,-0.03168588,0.51211549,-
 0.04398548,-0.14687655,-0.03173157,-0.02632651,0.52892268,-0.02602435,
 -0.02761329,-0.10001222,0.00071477,-0.01883752,0.59766836,-0.02100662,
 -0.00386401,0.00532964,-0.18464684,-0.00370082,0.04823974,0.52615742,-
 0.02202683,0.00131799,0.01303680,-0.00048777,-0.07934815,-0.00135268,0
 .03256602,0.52842103,-0.00761462,0.00927901,0.00786624,0.04771675,0.00
 073008,-0.11012367,-0.00006171,0.00902748,0.58147060,-0.00712968,0.000
 28380,-0.00077191,-0.02253133,0.02652030,-0.00475559,-0.12395030,0.054
 25901,-0.01851856,0.58231981,0.00008730,0.01023005,0.00179042,0.006791
 21,-0.00067760,-0.00679406,0.05190174,-0.15768458,0.01346697,-0.003317
 83,0.77092287,0.00039995,-0.00269599,0.00311703,0.00511505,-0.01222234
 ,0.00406901,-0.01610475,0.01197257,-0.09384361,-0.18373836,-0.33772270
 ,0.54555723,-0.54678662,-0.20088334,0.25428074,-0.02216752,-0.02285302
 ,0.01859871,-0.00096352,-0.00516668,-0.00312843,0.00301426,-0.00325521
 ,0.00124676,0.59676405,-0.19497829,-0.17383736,0.08715278,-0.03607065,
 0.00111076,0.01287879,-0.00171739,-0.00488851,-0.00533026,0.00119716,-
 0.00487066,0.00194779,0.22291009,0.14176929,0.26508638,0.09490639,-0.2
 5195573,0.00087399,-0.00108466,0.01288101,-0.00011826,-0.00144514,0.00
 109890,-0.00004161,0.00060821,-0.00165129,-0.33925803,-0.09996415,0.29
 087185,-0.11264650,-0.02117504,0.02966083,0.00817277,-0.01119915,-0.01
 673503,-0.00077086,-0.00139526,-0.00079136,0.00117970,0.00071667,-0.00
 073110,-0.01550349,0.01157237,0.07388491,0.37645596,-0.00911265,-0.129
 39011,-0.08959873,0.00069480,-0.00819636,-0.03375441,0.00009561,-0.001
 37510,-0.00209987,0.00072185,-0.00459246,0.00087608,0.00634371,0.03449
 666,0.00025361,0.25166377,0.37488978,0.04645806,-0.07351518,-0.2380097
 0,0.00446323,-0.01521413,-0.01605124,0.00116835,-0.00029115,-0.0018457
 7,0.00112706,-0.00101847,-0.00203588,0.06687859,-0.00579430,-0.0609588
 9,-0.03778184,0.18975985,0.37935540,0.00334971,-0.00086113,0.00157233,
 0.00049048,0.00097320,-0.00074491,0.01531233,0.01106608,-0.00211631,-0
 .15597814,-0.12273939,0.11947876,-0.00095971,0.00026347,-0.00040458,-0
 .00174360,0.00052057,-0.00178208,0.16678645,-0.00098422,-0.00581347,-0
 .00143287,-0.00405245,0.00126047,0.00158836,-0.00632615,-0.02715494,0.
 03687073,-0.11038421,-0.47379662,0.30961427,0.00174475,0.00277254,-0.0
 0025869,-0.00070213,0.00310553,0.00031422,0.15676106,0.49782885,0.0009
 2223,0.00048855,-0.00230112,0.00244006,-0.00223149,-0.00151630,0.00903
 086,0.02628841,0.00489598,0.11115274,0.31607173,-0.33827701,-0.0012629
 8,-0.00117008,0.00127183,-0.00106382,0.00046918,0.00077361,-0.17109851
 ,-0.37842432,0.36256259,0.00337034,0.00195959,0.00228739,-0.00047708,0
 .00467025,-0.00222796,-0.02770877,0.00978422,0.01461162,-0.25584964,0.
 01897723,0.08887860,-0.00169419,-0.00095277,-0.00048227,-0.00066741,-0
 .00083684,-0.00183059,-0.03352271,-0.03802180,0.05803485,0.45850509,-0
 .00108908,-0.00308231,-0.00115318,0.00177948,-0.00473382,0.00326982,0.
 03529510,-0.00043138,-0.01108424,0.04085255,-0.11625434,0.01004512,0.0
 0106047,0.00147811,0.00000112,-0.00003715,0.00127265,0.00092793,-0.047
 11477,0.01509148,0.03415246,-0.19823772,0.47593423,-0.00095637,0.00038
 133,-0.00183383,-0.00039504,0.00129800,0.00073014,-0.00101218,0.001831
 37,0.01010780,0.07550193,0.02165448,-0.11995542,0.00010024,-0.00030175
 ,0.00068735,0.00023033,0.00016064,0.00132823,0.06358476,0.02922223,-0.
 02259632,-0.09817942,-0.16954265,0.19917586,-0.00033553,0.00550334,-0.
 02015128,-0.05090678,-0.00084732,-0.01522498,0.00172042,-0.00236965,0.
 03196286,0.00019154,-0.00153712,0.00241150,-0.00017634,-0.00101738,0.0
 0172944,-0.00167050,-0.00307009,-0.00094093,0.00024534,0.00083739,-0.0
 0127527,0.00040033,0.00014793,-0.00048966,0.05620542,-0.00268191,0.001
 79542,-0.02869499,-0.00019463,-0.04620426,0.02661899,-0.00036039,-0.00
 066354,0.00024118,0.00103636,0.00076791,-0.00192958,0.00222720,0.00009
 420,0.00167283,-0.00313629,-0.00451547,-0.00179727,-0.00034855,-0.0003
 2159,0.00070498,-0.00068635,-0.00016607,0.00048160,0.00236732,0.051246
 38,0.00053710,0.00163034,-0.01332096,-0.01667415,0.02314603,-0.3240682
 0,0.00026409,0.00076077,-0.00987334,0.00028331,0.00176716,-0.00126085,
 0.00138698,0.00057644,0.00240354,-0.00192646,-0.00154744,0.00017645,-0
 .00111568,-0.00036881,0.00105117,-0.00030671,-0.00033059,0.00034319,0.
 01536139,-0.02534829,0.34842546,0.01115804,-0.01796558,0.00693872,-0.1
 0091500,0.10254038,-0.02543565,-0.01401816,0.02644812,-0.00707458,-0.0
 0386863,-0.00264971,0.00349717,-0.00328379,0.00104617,-0.00108255,-0.0
 0080672,-0.00003789,-0.00163141,0.00040811,0.00019040,-0.00007247,-0.0
 0183461,0.00198483,-0.00024434,-0.00138709,0.00151540,-0.00016224,0.11
 356630,0.01298264,-0.02407106,0.00769751,0.10742489,-0.25024223,0.0476
 9226,-0.00203688,0.00237809,-0.00017708,-0.00127918,0.00014546,0.00089
 212,-0.00265918,0.00243375,-0.00206472,-0.00187711,-0.00021702,-0.0014
 1543,0.00066149,0.00024977,-0.00039507,0.00006995,0.00021157,-0.000162
 04,0.00046952,-0.00132527,-0.00026556,-0.11355175,0.26953444,0.0066276
 8,-0.01314889,0.00253125,-0.02528807,0.04619059,-0.05481493,0.00763341
 ,-0.01297682,0.00214222,0.00251231,0.00163771,-0.00185518,0.00019194,0
 .00118880,-0.00022472,-0.00135004,-0.00027498,-0.00186818,-0.00094581,
 -0.00000388,0.00072123,0.00047611,-0.00085511,0.00034974,-0.01458330,0
 .02887086,-0.00447053,0.02604242,-0.05075666,0.05750144,0.00053450,0.0
 0057599,0.00278881,0.00207310,-0.00285349,0.03212721,-0.04986391,0.004
 48552,-0.01485830,0.00042729,-0.00356594,-0.01912434,0.00037755,-0.000
 09021,-0.00105478,-0.00068793,-0.00105661,-0.00121410,-0.00024803,0.00
 337725,0.00089124,-0.00144007,0.00135391,0.00175225,-0.00591396,-0.000
 15493,0.00183538,0.00111330,0.00033540,-0.00035571,0.05449369,-0.00050
 486,0.00061342,0.00224377,-0.00008707,-0.00062689,-0.00082996,0.004750
 06,-0.04570426,0.02313738,0.00046458,-0.00058045,0.03253638,0.00041805
 ,-0.00001735,-0.00069096,-0.00051209,-0.00088595,-0.00065364,0.0015453
 5,-0.00692432,-0.00125580,-0.00030830,-0.00004052,-0.00192706,0.000388
 90,0.00032993,0.00020519,0.00001408,-0.00000959,-0.00049565,-0.0041135
 5,0.05078638,0.00015256,-0.00085280,-0.00159416,-0.00006608,0.00069603
 ,-0.01036781,-0.01369131,0.02318092,-0.31949878,0.00105457,0.00151725,
 -0.00855157,-0.00010250,0.00021590,0.00059516,-0.00133699,-0.00079899,
 0.00048569,-0.00156089,0.00016399,0.00090899,0.00072416,-0.00090041,0.
 00099661,0.00193801,-0.00028441,0.00065038,0.00017685,-0.00022177,0.00
 024013,0.01324519,-0.02470055,0.34484299,-0.00270683,0.00348094,0.0040
 0784,-0.01560966,-0.02336873,-0.01151436,-0.11632897,-0.10549604,-0.04
 520930,0.01202973,0.01258103,0.00948499,-0.00237546,-0.00249941,-0.000
 01214,0.00022773,-0.00060911,-0.00050448,-0.00161419,0.00136202,-0.003
 36121,-0.00241144,0.00018741,-0.00053001,0.00107706,-0.00010021,0.0002
 4846,0.00061027,0.00013556,-0.00079904,-0.00125488,-0.00158281,-0.0003
 2675,0.12805696,0.00117679,0.00055143,-0.00034253,0.00155550,0.0019444
 4,0.00093491,-0.10816163,-0.21817359,-0.07459249,-0.01867192,-0.023829
 70,-0.01130679,0.00009957,0.00018396,0.00006920,-0.00012560,0.00010647
 ,0.00008669,0.00436501,-0.00143998,0.00342853,0.00158500,0.00171961,0.
 00091724,-0.00036427,-0.00006094,0.00012077,0.00000022,0.00057345,0.00
 023638,0.00200780,0.00322001,0.00145468,0.11626876,0.23474202,0.002356
 15,-0.00135479,-0.00256997,0.00835989,0.01209644,0.00463635,-0.0454335
 5,-0.07278453,-0.07336636,0.00431354,0.00932267,0.00270017,0.00056761,
 0.00101056,0.00050268,-0.00085903,-0.00027707,0.00035961,-0.00155818,0
 .00110089,-0.00234534,0.00086597,-0.00078286,-0.00018089,-0.00032493,0
 .00041438,0.00031142,-0.00086573,-0.00013846,0.00042669,-0.01590617,-0
 .02703294,-0.00946674,0.04850189,0.07828155,0.07894727,0.01370186,0.00
 687072,-0.00163681,0.00147024,-0.00110580,0.00336588,0.00010722,-0.000
 04500,0.00001775,0.00008108,-0.00100384,0.00054358,-0.00649312,0.00043
 462,0.00100962,-0.25186738,-0.24496254,-0.07424018,0.00030448,0.000711
 42,-0.00004499,0.00014966,0.00023001,-0.00006211,0.00061547,0.00040105
 ,0.00019275,-0.00032851,-0.00055074,-0.00042856,0.00004403,0.00010942,
 -0.00023792,0.00001912,-0.00000572,-0.00010788,0.24232416,-0.01527655,
 -0.01694475,-0.01347905,-0.00034854,0.00370382,-0.00423198,0.00043251,
 0.00025696,0.00019105,-0.00056234,0.00060194,-0.00028892,0.00009735,-0
 .00069428,0.00803785,-0.22375627,-0.26455909,-0.09123879,0.00022867,-0
 .00047533,0.00019117,0.00015993,-0.00020616,-0.00005425,-0.00055552,-0
 .00093323,-0.00031236,0.00045125,0.00027758,0.00046327,0.00000612,-0.0
 0003438,0.00014673,0.00015423,0.00006191,0.00013996,0.23895128,0.27887
 971,-0.03500220,-0.04192266,-0.01520143,0.00381251,-0.00235646,-0.0038
 1571,0.00101311,0.00092266,0.00010950,-0.00092899,-0.00025421,0.000497
 04,0.00042425,0.00753804,0.00468228,-0.04123568,-0.06294861,-0.0613500
 0,0.00055258,0.00039863,-0.00013228,0.00055366,-0.00004490,-0.00037485
 ,-0.00031722,-0.00092851,-0.00037315,-0.00029712,-0.00069875,-0.000589
 37,-0.00031919,-0.00018511,0.00035178,0.00015869,0.00003883,0.00025107
 ,0.07168838,0.10039841,0.07587810,-0.00036188,0.00047120,0.00035040,-0
 .00021589,0.00153619,-0.00038349,-0.00403942,-0.00162174,0.00506417,-0
 .02993569,0.04701386,-0.01135782,0.00024791,-0.00009777,-0.00013011,0.
 00032824,-0.00035461,-0.00016966,0.00716950,-0.00451333,-0.00429274,-0
 .13681950,0.16358703,-0.03930036,-0.00006537,0.00011593,0.00007577,-0.
 00041350,-0.00012460,0.00026667,0.00034533,-0.00058177,0.00003108,0.00
 028056,0.00027049,0.00009041,-0.00012830,0.00001788,-0.00010279,0.1636
 0801,0.00026133,0.00006867,0.00012833,-0.00014999,-0.00003631,0.000430
 77,0.00112622,0.00304998,0.00034006,0.00887986,-0.00038181,-0.00171801
 ,-0.00008375,-0.00003112,-0.00004088,-0.00003672,-0.00013952,-0.000150
 34,-0.00532106,-0.00438238,0.00168178,0.20183761,-0.37079304,0.1160408
 7,0.00004696,-0.00004346,-0.00003364,0.00001408,0.00006107,-0.00007562
 ,-0.00030726,-0.00012603,0.00038341,-0.00051364,0.00040089,0.00000421,
 -0.00003486,0.00006529,0.00004263,-0.20571877,0.37228777,0.00002825,0.
 00003466,0.00044160,0.00061298,-0.00047900,0.00078521,0.00374254,0.001
 82934,0.00086029,0.01280956,-0.02204716,0.01149033,0.00007613,0.000051
 45,-0.00020395,0.00003528,-0.00021926,-0.00035931,-0.00386148,0.001215
 25,-0.00501702,-0.06340542,0.13629750,-0.06877761,-0.00009564,-0.00002
 177,0.00000541,0.00021092,0.00001367,-0.00008979,0.00019250,-0.0003510
 6,0.00040734,-0.00014457,0.00067304,-0.00020595,-0.00005951,0.00003690
 ,0.00006704,0.04985846,-0.11703356,0.06059641\\0.00002356,-0.00002404,
 -0.00006174,0.00000040,0.00000889,0.00000720,-0.00000507,0.00000358,0.
 00002105,0.00002689,-0.00000051,-0.00001821,-0.00000926,0.00000688,0.0
 0001218,-0.00001981,0.00001175,0.00004688,-0.00000491,0.00000167,0.000
 00205,-0.00001995,-0.00000269,0.00001699,-0.00000032,-0.00000611,-0.00
 000199,-0.00000083,0.00000299,0.00000118,-0.00000228,-0.00000128,-0.00
 000720,0.00000476,0.00000454,-0.00001313,0.00000232,-0.00000124,-0.000
 00268,0.00000452,-0.00000442,-0.00000259\\\@


 A FOOL CAN ASK MORE QUESTIONS THAN
 A WISE MAN CAN ANSWER.
 Job cpu time:       0 days  1 hours 18 minutes 17.4 seconds.
 Elapsed time:       0 days  0 hours  1 minutes 18.8 seconds.
 File lengths (MBytes):  RWF=     56 Int=      0 D2E=      0 Chk=      4 Scr=      1
 Normal termination of Gaussian 16 at Wed Jun  8 18:14:31 2022.
