 Entering Gaussian System, Link 0=g16
 Initial command:
 /public/scc/g16/g16/l1.exe "/tmp/248978.node01/Gau-25643.inp" -scrdir="/tmp/248978.node01/"
 Entering Link 1 = /public/scc/g16/g16/l1.exe PID=     25644.
  
 Copyright (c) 1988,1990,1992,1993,1995,1998,2003,2009,2016,
            Gaussian, Inc.  All Rights Reserved.
  
 This is part of the Gaussian(R) 16 program.  It is based on
 the Gaussian(R) 09 system (copyright 2009, Gaussian, Inc.),
 the Gaussian(R) 03 system (copyright 2003, Gaussian, Inc.),
 the Gaussian(R) 98 system (copyright 1998, Gaussian, Inc.),
 the Gaussian(R) 94 system (copyright 1995, Gaussian, Inc.),
 the Gaussian 92(TM) system (copyright 1992, Gaussian, Inc.),
 the Gaussian 90(TM) system (copyright 1990, Gaussian, Inc.),
 the Gaussian 88(TM) system (copyright 1988, Gaussian, Inc.),
 the Gaussian 86(TM) system (copyright 1986, Carnegie Mellon
 University), and the Gaussian 82(TM) system (copyright 1983,
 Carnegie Mellon University). Gaussian is a federally registered
 trademark of Gaussian, Inc.
  
 This software contains proprietary and confidential information,
 including trade secrets, belonging to Gaussian, Inc.
  
 This software is provided under written license and may be
 used, copied, transmitted, or stored only in accord with that
 written license.
  
 The following legend is applicable only to US Government
 contracts under FAR:
  
                    RESTRICTED RIGHTS LEGEND
  
 Use, reproduction and disclosure by the US Government is
 subject to restrictions as set forth in subparagraphs (a)
 and (c) of the Commercial Computer Software - Restricted
 Rights clause in FAR 52.227-19.
  
 Gaussian, Inc.
 340 Quinnipiac St., Bldg. 40, Wallingford CT 06492
  
  
 ---------------------------------------------------------------
 Warning -- This program may not be used in any manner that
 competes with the business of Gaussian, Inc. or will provide
 assistance to any competitor of Gaussian, Inc.  The licensee
 of this program is prohibited from giving any competitor of
 Gaussian, Inc. access to this program.  By using this program,
 the user acknowledges that Gaussian, Inc. is engaged in the
 business of creating and licensing software in the field of
 computational chemistry and represents and warrants to the
 licensee that it is not a competitor of Gaussian, Inc. and that
 it will not use this program in any manner prohibited above.
 ---------------------------------------------------------------
  

 Cite this work as:
 Gaussian 16, Revision A.03,
 M. J. Frisch, G. W. Trucks, H. B. Schlegel, G. E. Scuseria, 
 M. A. Robb, J. R. Cheeseman, G. Scalmani, V. Barone, 
 G. A. Petersson, H. Nakatsuji, X. Li, M. Caricato, A. V. Marenich, 
 J. Bloino, B. G. Janesko, R. Gomperts, B. Mennucci, H. P. Hratchian, 
 J. V. Ortiz, A. F. Izmaylov, J. L. Sonnenberg, D. Williams-Young, 
 F. Ding, F. Lipparini, F. Egidi, J. Goings, B. Peng, A. Petrone, 
 T. Henderson, D. Ranasinghe, V. G. Zakrzewski, J. Gao, N. Rega, 
 G. Zheng, W. Liang, M. Hada, M. Ehara, K. Toyota, R. Fukuda, 
 J. Hasegawa, M. Ishida, T. Nakajima, Y. Honda, O. Kitao, H. Nakai, 
 T. Vreven, K. Throssell, J. A. Montgomery, Jr., J. E. Peralta, 
 F. Ogliaro, M. J. Bearpark, J. J. Heyd, E. N. Brothers, K. N. Kudin, 
 V. N. Staroverov, T. A. Keith, R. Kobayashi, J. Normand, 
 K. Raghavachari, A. P. Rendell, J. C. Burant, S. S. Iyengar, 
 J. Tomasi, M. Cossi, J. M. Millam, M. Klene, C. Adamo, R. Cammi, 
 J. W. Ochterski, R. L. Martin, K. Morokuma, O. Farkas, 
 J. B. Foresman, and D. J. Fox, Gaussian, Inc., Wallingford CT, 2016.
 
 ******************************************
 Gaussian 16:  ES64L-G16RevA.03 25-Dec-2016
                29-Dec-2021 
 ******************************************
 %chk=Am.chk
 %nproc=8
 Will use up to    8 processors via shared memory.
 %mem=1000MB
 -------------------------------
 #p wB97XD/6-31++G(d,p) opt freq
 -------------------------------
 1/18=20,19=15,26=3,38=1/1,3;
 2/9=110,12=2,17=6,18=5,40=1/2;
 3/5=1,6=6,7=1111,11=2,25=1,30=1,71=1,74=-58/1,2,3;
 4//1;
 5/5=2,38=5/2;
 6/7=2,8=2,9=2,10=2,28=1/1;
 7//1,2,3,16;
 1/18=20,19=15,26=3/3(2);
 2/9=110/2;
 99//99;
 2/9=110/2;
 3/5=1,6=6,7=1111,11=2,25=1,30=1,71=1,74=-58/1,2,3;
 4/5=5,16=3,69=1/1;
 5/5=2,38=5/2;
 7//1,2,3,16;
 1/18=20,19=15,26=3/3(-5);
 2/9=110/2;
 6/7=2,8=2,9=2,10=2,19=2,28=1/1;
 99/9=1/99;
 Leave Link    1 at Wed Dec 29 11:03:34 2021, MaxMem=   131072000 cpu:               0.3 elap:               0.0
 (Enter /public/scc/g16/g16/l101.exe)
 -----
 aaaaa
 -----
 Symbolic Z-matrix:
 Charge =  0 Multiplicity = 1
 N                     0.        0.107     0. 
 H                     0.9484   -0.2501    0. 
 H                    -0.4742   -0.2496    0.8215 
 H                    -0.4742   -0.2496   -0.8215 
 
 ITRead=  0  0  0  0
 MicOpt= -1 -1 -1 -1
 NAtoms=      4 NQM=        4 NQMF=       0 NMMI=      0 NMMIF=      0
                NMic=       0 NMicF=      0.
                    Isotopes and Nuclear Properties:
 (Nuclear quadrupole moments (NQMom) in fm**2, nuclear magnetic moments (NMagM)
  in nuclear magnetons)

  Atom         1           2           3           4
 IAtWgt=          14           1           1           1
 AtmWgt=  14.0030740   1.0078250   1.0078250   1.0078250
 NucSpn=           2           1           1           1
 AtZEff=  -0.0000000  -0.0000000  -0.0000000  -0.0000000
 NQMom=    2.0440000   0.0000000   0.0000000   0.0000000
 NMagM=    0.4037610   2.7928460   2.7928460   2.7928460
 AtZNuc=   7.0000000   1.0000000   1.0000000   1.0000000
 Leave Link  101 at Wed Dec 29 11:03:34 2021, MaxMem=   131072000 cpu:               1.3 elap:               0.3
 (Enter /public/scc/g16/g16/l103.exe)

 GradGradGradGradGradGradGradGradGradGradGradGradGradGradGradGradGradGrad
 Berny optimization.
 Initialization pass.
                           ----------------------------
                           !    Initial Parameters    !
                           ! (Angstroms and Degrees)  !
 --------------------------                            --------------------------
 ! Name  Definition              Value          Derivative Info.                !
 --------------------------------------------------------------------------------
 ! R1    R(1,2)                  1.0134         estimate D2E/DX2                !
 ! R2    R(1,3)                  1.0134         estimate D2E/DX2                !
 ! R3    R(1,4)                  1.0134         estimate D2E/DX2                !
 ! A1    A(2,1,3)              108.2964         estimate D2E/DX2                !
 ! A2    A(2,1,4)              108.2964         estimate D2E/DX2                !
 ! A3    A(3,1,4)              108.3233         estimate D2E/DX2                !
 ! D1    D(2,1,4,3)            117.2459         estimate D2E/DX2                !
 --------------------------------------------------------------------------------
 Trust Radius=3.00D-01 FncErr=1.00D-07 GrdErr=1.00D-06 EigMax=2.50D+02 EigMin=1.00D-04
 Number of steps in this run=     20 maximum allowed number of steps=    100.
 GradGradGradGradGradGradGradGradGradGradGradGradGradGradGradGradGradGrad

 Leave Link  103 at Wed Dec 29 11:03:34 2021, MaxMem=   131072000 cpu:               0.1 elap:               0.0
 (Enter /public/scc/g16/g16/l202.exe)
                          Input orientation:                          
 ---------------------------------------------------------------------
 Center     Atomic      Atomic             Coordinates (Angstroms)
 Number     Number       Type             X           Y           Z
 ---------------------------------------------------------------------
      1          7           0        0.000000    0.107000    0.000000
      2          1           0        0.948400   -0.250100    0.000000
      3          1           0       -0.474200   -0.249600    0.821500
      4          1           0       -0.474200   -0.249600   -0.821500
 ---------------------------------------------------------------------
                    Distance matrix (angstroms):
                    1          2          3          4
     1  N    0.000000
     2  H    1.013402   0.000000
     3  H    1.013357   1.642758   0.000000
     4  H    1.013357   1.642758   1.643000   0.000000
 Stoichiometry    H3N
 Framework group  CS[SG(HN),X(H2)]
 Deg. of freedom     4
 Full point group                 CS      NOp   2
 Largest Abelian subgroup         CS      NOp   2
 Largest concise Abelian subgroup CS      NOp   2
                         Standard orientation:                         
 ---------------------------------------------------------------------
 Center     Atomic      Atomic             Coordinates (Angstroms)
 Number     Number       Type             X           Y           Z
 ---------------------------------------------------------------------
      1          7           0       -0.000000    0.107030    0.000000
      2          1           0        0.948400   -0.250070   -0.000000
      3          1           0       -0.474200   -0.249570    0.821500
      4          1           0       -0.474200   -0.249570   -0.821500
 ---------------------------------------------------------------------
 Rotational constants (GHZ):         301.4938120         301.3976895         185.7985315
 Leave Link  202 at Wed Dec 29 11:03:34 2021, MaxMem=   131072000 cpu:               0.1 elap:               0.0
 (Enter /public/scc/g16/g16/l301.exe)
 Standard basis: 6-31++G(d,p) (6D, 7F)
 Ernie: Thresh=  0.10000D-02 Tol=  0.10000D-05 Strict=F.
 There are    25 symmetry adapted cartesian basis functions of A'  symmetry.
 There are    12 symmetry adapted cartesian basis functions of A"  symmetry.
 There are    25 symmetry adapted basis functions of A'  symmetry.
 There are    12 symmetry adapted basis functions of A"  symmetry.
    37 basis functions,    56 primitive gaussians,    37 cartesian basis functions
     5 alpha electrons        5 beta electrons
       nuclear repulsion energy        11.9324220784 Hartrees.
 IExCor= 4639 DFT=T Ex+Corr=wB97XD ExCW=0 ScaHFX=  1.000000
 ScaDFX=  1.000000  1.000000  1.000000  1.000000 ScalE2=  1.000000  1.000000
 IRadAn=      5 IRanWt=     -1 IRanGd=            0 ICorTp=0 IEmpDi=121
 HFx  wShort=  0.000000 wLong=  0.200000 cFull=  0.222036 cShort=  0.000000 cLong=  0.777964
 DFx  wShort=  0.000000 wLong=  0.200000 cFull=  0.000000 cShort=  0.000000 cLong=  1.000000
 NAtoms=    4 NActive=    4 NUniq=    3 SFac= 1.78D+00 NAtFMM=   60 NAOKFM=F Big=F
 Integral buffers will be    131072 words long.
 Raffenetti 2 integral format.
 Two-electron integral symmetry is turned on.
 R6Disp:  Grimme-D2 Dispersion energy=       -0.0001268729 Hartrees.
 Nuclear repulsion after empirical dispersion term =       11.9322952055 Hartrees.
 Leave Link  301 at Wed Dec 29 11:03:34 2021, MaxMem=   131072000 cpu:               0.3 elap:               0.1
 (Enter /public/scc/g16/g16/l302.exe)
 NPDir=0 NMtPBC=     1 NCelOv=     1 NCel=       1 NClECP=     1 NCelD=      1
         NCelK=      1 NCelE2=     1 NClLst=     1 CellRange=     0.0.
 One-electron integrals computed using PRISM.
 One-electron integral symmetry used in STVInt
 NBasis=    37 RedAO= T EigKep=  1.06D-02  NBF=    25    12
 NBsUse=    37 1.00D-06 EigRej= -1.00D+00 NBFU=    25    12
 Precomputing XC quadrature grid using
 IXCGrd= 4 IRadAn=           5 IRanWt=          -1 IRanGd=           0 AccXCQ= 0.00D+00.
 Generated NRdTot=       0 NPtTot=           0 NUsed=           0 NTot=          32
 NSgBfM=    37    37    37    37    37 MxSgAt=     4 MxSgA2=     4.
 Leave Link  302 at Wed Dec 29 11:03:34 2021, MaxMem=   131072000 cpu:               1.2 elap:               0.2
 (Enter /public/scc/g16/g16/l303.exe)
 DipDrv:  MaxL=1.
 Leave Link  303 at Wed Dec 29 11:03:34 2021, MaxMem=   131072000 cpu:               0.1 elap:               0.0
 (Enter /public/scc/g16/g16/l401.exe)
 ExpMin= 3.60D-02 ExpMax= 4.17D+03 ExpMxC= 6.27D+02 IAcc=3 IRadAn=         5 AccDes= 0.00D+00
 Harris functional with IExCor= 4639 and IRadAn=       5 diagonalized for initial guess.
 HarFok:  IExCor= 4639 AccDes= 0.00D+00 IRadAn=         5 IDoV= 1 UseB2=F ITyADJ=14
 ICtDFT=  3500011 ScaDFX=  1.000000  1.000000  1.000000  1.000000
 FoFCou: FMM=F IPFlag=           0 FMFlag=      100000 FMFlg1=           0
         NFxFlg=           0 DoJE=T BraDBF=F KetDBF=T FulRan=T
         wScrn=  0.000000 ICntrl=       500 IOpCl=  0 I1Cent=   200000004 NGrid=           0
         NMat0=    1 NMatS0=      1 NMatT0=    0 NMatD0=    1 NMtDS0=    0 NMtDT0=    0
 Petite list used in FoFCou.
 Harris En= -54.0368167610030    
 JPrj=0 DoOrth=F DoCkMO=F.
 Initial guess orbital symmetries:
       Occupied  (A') (A') (A") (A') (A')
       Virtual   (A') (A") (A') (A') (A') (A') (A") (A') (A") (A')
                 (A') (A") (A') (A') (A") (A') (A') (A") (A') (A')
                 (A") (A") (A') (A') (A") (A') (A') (A") (A') (A")
                 (A') (A')
 The electronic state of the initial guess is 1-A'.
 Leave Link  401 at Wed Dec 29 11:03:35 2021, MaxMem=   131072000 cpu:               2.3 elap:               0.4
 (Enter /public/scc/g16/g16/l502.exe)
 Keep R1 ints in memory in symmetry-blocked form, NReq=7399684.
 FoFCou: FMM=F IPFlag=           0 FMFlag=           0 FMFlg1=           0
         NFxFlg=           0 DoJE=F BraDBF=F KetDBF=F FulRan=T
         wScrn=  0.000000 ICntrl=       600 IOpCl=  0 I1Cent=           0 NGrid=           0
         NMat0=    1 NMatS0=    703 NMatT0=    0 NMatD0=    1 NMtDS0=    0 NMtDT0=    0
 Petite list used in FoFCou.
 Closed shell SCF:
 Using DIIS extrapolation, IDIIS=  1040.
 NGot=   131072000 LenX=   130939936 LenY=   130938126
 Requested convergence on RMS density matrix=1.00D-08 within 128 cycles.
 Requested convergence on MAX density matrix=1.00D-06.
 Requested convergence on             energy=1.00D-06.
 No special actions if energy rises.

 Cycle   1  Pass 1  IDiag  1:
 E= -56.5378268094958    
 DIIS: error= 5.42D-02 at cycle   1 NSaved=   1.
 NSaved= 1 IEnMin= 1 EnMin= -56.5378268094958     IErMin= 1 ErrMin= 5.42D-02
 ErrMax= 5.42D-02  0.00D+00 EMaxC= 1.00D-01 BMatC= 3.55D-02 BMatP= 3.55D-02
 IDIUse=3 WtCom= 4.58D-01 WtEn= 5.42D-01
 Coeff-Com:  0.100D+01
 Coeff-En:   0.100D+01
 Coeff:      0.100D+01
 Gap=     0.371 Goal=   None    Shift=    0.000
 GapD=    0.371 DampG=1.000 DampE=0.500 DampFc=0.5000 IDamp=-1.
 Damping current iteration by 5.00D-01
 RMSDP=3.00D-03 MaxDP=2.67D-02              OVMax= 3.36D-02

 Cycle   2  Pass 1  IDiag  1:
 E= -56.5420918722926     Delta-E=       -0.004265062797 Rises=F Damp=T
 DIIS: error= 2.79D-02 at cycle   2 NSaved=   2.
 NSaved= 2 IEnMin= 2 EnMin= -56.5420918722926     IErMin= 2 ErrMin= 2.79D-02
 ErrMax= 2.79D-02  0.00D+00 EMaxC= 1.00D-01 BMatC= 8.82D-03 BMatP= 3.55D-02
 IDIUse=3 WtCom= 7.21D-01 WtEn= 2.79D-01
 Coeff-Com: -0.851D+00 0.185D+01
 Coeff-En:   0.000D+00 0.100D+01
 Coeff:     -0.614D+00 0.161D+01
 Gap=     0.403 Goal=   None    Shift=    0.000
 RMSDP=1.40D-03 MaxDP=1.30D-02 DE=-4.27D-03 OVMax= 2.15D-02

 Cycle   3  Pass 1  IDiag  1:
 E= -56.5459247292103     Delta-E=       -0.003832856918 Rises=F Damp=F
 DIIS: error= 3.79D-03 at cycle   3 NSaved=   3.
 NSaved= 3 IEnMin= 3 EnMin= -56.5459247292103     IErMin= 3 ErrMin= 3.79D-03
 ErrMax= 3.79D-03  0.00D+00 EMaxC= 1.00D-01 BMatC= 7.10D-04 BMatP= 8.82D-03
 IDIUse=3 WtCom= 9.62D-01 WtEn= 3.79D-02
 Coeff-Com: -0.372D+00 0.754D+00 0.618D+00
 Coeff-En:   0.000D+00 0.000D+00 0.100D+01
 Coeff:     -0.358D+00 0.726D+00 0.632D+00
 Gap=     0.391 Goal=   None    Shift=    0.000
 RMSDP=4.46D-04 MaxDP=7.02D-03 DE=-3.83D-03 OVMax= 6.98D-03

 Cycle   4  Pass 1  IDiag  1:
 E= -56.5464924491273     Delta-E=       -0.000567719917 Rises=F Damp=F
 DIIS: error= 3.01D-04 at cycle   4 NSaved=   4.
 NSaved= 4 IEnMin= 4 EnMin= -56.5464924491273     IErMin= 4 ErrMin= 3.01D-04
 ErrMax= 3.01D-04  0.00D+00 EMaxC= 1.00D-01 BMatC= 3.67D-06 BMatP= 7.10D-04
 IDIUse=3 WtCom= 9.97D-01 WtEn= 3.01D-03
 Coeff-Com: -0.134D-01 0.251D-01 0.691D-01 0.919D+00
 Coeff-En:   0.000D+00 0.000D+00 0.000D+00 0.100D+01
 Coeff:     -0.134D-01 0.250D-01 0.689D-01 0.920D+00
 Gap=     0.391 Goal=   None    Shift=    0.000
 RMSDP=8.69D-05 MaxDP=9.04D-04 DE=-5.68D-04 OVMax= 1.49D-03

 Cycle   5  Pass 1  IDiag  1:
 E= -56.5464981090599     Delta-E=       -0.000005659933 Rises=F Damp=F
 DIIS: error= 1.04D-04 at cycle   5 NSaved=   5.
 NSaved= 5 IEnMin= 5 EnMin= -56.5464981090599     IErMin= 5 ErrMin= 1.04D-04
 ErrMax= 1.04D-04  0.00D+00 EMaxC= 1.00D-01 BMatC= 1.42D-07 BMatP= 3.67D-06
 IDIUse=3 WtCom= 9.99D-01 WtEn= 1.04D-03
 Coeff-Com:  0.231D-01-0.465D-01-0.480D-01-0.137D+00 0.121D+01
 Coeff-En:   0.000D+00 0.000D+00 0.000D+00 0.000D+00 0.100D+01
 Coeff:      0.231D-01-0.465D-01-0.479D-01-0.137D+00 0.121D+01
 Gap=     0.391 Goal=   None    Shift=    0.000
 RMSDP=5.41D-05 MaxDP=6.54D-04 DE=-5.66D-06 OVMax= 8.56D-04

 Cycle   6  Pass 1  IDiag  1:
 E= -56.5464988254974     Delta-E=       -0.000000716438 Rises=F Damp=F
 DIIS: error= 2.39D-05 at cycle   6 NSaved=   6.
 NSaved= 6 IEnMin= 6 EnMin= -56.5464988254974     IErMin= 6 ErrMin= 2.39D-05
 ErrMax= 2.39D-05  0.00D+00 EMaxC= 1.00D-01 BMatC= 5.64D-09 BMatP= 1.42D-07
 IDIUse=1 WtCom= 1.00D+00 WtEn= 0.00D+00
 Coeff-Com: -0.725D-02 0.147D-01 0.128D-01-0.621D-02-0.321D+00 0.131D+01
 Coeff:     -0.725D-02 0.147D-01 0.128D-01-0.621D-02-0.321D+00 0.131D+01
 Gap=     0.391 Goal=   None    Shift=    0.000
 RMSDP=9.99D-06 MaxDP=1.29D-04 DE=-7.16D-07 OVMax= 2.16D-04

 Cycle   7  Pass 1  IDiag  1:
 E= -56.5464988583525     Delta-E=       -0.000000032855 Rises=F Damp=F
 DIIS: error= 4.05D-06 at cycle   7 NSaved=   7.
 NSaved= 7 IEnMin= 7 EnMin= -56.5464988583525     IErMin= 7 ErrMin= 4.05D-06
 ErrMax= 4.05D-06  0.00D+00 EMaxC= 1.00D-01 BMatC= 1.41D-10 BMatP= 5.64D-09
 IDIUse=1 WtCom= 1.00D+00 WtEn= 0.00D+00
 Coeff-Com:  0.127D-02-0.258D-02-0.211D-02 0.352D-02 0.559D-01-0.357D+00
 Coeff-Com:  0.130D+01
 Coeff:      0.127D-02-0.258D-02-0.211D-02 0.352D-02 0.559D-01-0.357D+00
 Coeff:      0.130D+01
 Gap=     0.391 Goal=   None    Shift=    0.000
 RMSDP=1.19D-06 MaxDP=1.20D-05 DE=-3.29D-08 OVMax= 3.92D-05

 Cycle   8  Pass 1  IDiag  1:
 E= -56.5464988593541     Delta-E=       -0.000000001002 Rises=F Damp=F
 DIIS: error= 4.69D-07 at cycle   8 NSaved=   8.
 NSaved= 8 IEnMin= 8 EnMin= -56.5464988593541     IErMin= 8 ErrMin= 4.69D-07
 ErrMax= 4.69D-07  0.00D+00 EMaxC= 1.00D-01 BMatC= 5.81D-12 BMatP= 1.41D-10
 IDIUse=1 WtCom= 1.00D+00 WtEn= 0.00D+00
 Coeff-Com: -0.534D-04 0.113D-03 0.114D-03-0.843D-03-0.197D-02 0.408D-01
 Coeff-Com: -0.320D+00 0.128D+01
 Coeff:     -0.534D-04 0.113D-03 0.114D-03-0.843D-03-0.197D-02 0.408D-01
 Coeff:     -0.320D+00 0.128D+01
 Gap=     0.391 Goal=   None    Shift=    0.000
 RMSDP=2.22D-07 MaxDP=2.03D-06 DE=-1.00D-09 OVMax= 5.85D-06

 Cycle   9  Pass 1  IDiag  1:
 E= -56.5464988593802     Delta-E=       -0.000000000026 Rises=F Damp=F
 DIIS: error= 5.03D-08 at cycle   9 NSaved=   9.
 NSaved= 9 IEnMin= 9 EnMin= -56.5464988593802     IErMin= 9 ErrMin= 5.03D-08
 ErrMax= 5.03D-08  0.00D+00 EMaxC= 1.00D-01 BMatC= 6.59D-14 BMatP= 5.81D-12
 IDIUse=1 WtCom= 1.00D+00 WtEn= 0.00D+00
 Coeff-Com:  0.833D-06-0.255D-05-0.397D-05 0.213D-03-0.392D-03-0.475D-02
 Coeff-Com:  0.614D-01-0.337D+00 0.128D+01
 Coeff:      0.833D-06-0.255D-05-0.397D-05 0.213D-03-0.392D-03-0.475D-02
 Coeff:      0.614D-01-0.337D+00 0.128D+01
 Gap=     0.391 Goal=   None    Shift=    0.000
 RMSDP=2.68D-08 MaxDP=2.81D-07 DE=-2.61D-11 OVMax= 4.77D-07

 Cycle  10  Pass 1  IDiag  1:
 E= -56.5464988593809     Delta-E=       -0.000000000001 Rises=F Damp=F
 DIIS: error= 4.23D-09 at cycle  10 NSaved=  10.
 NSaved=10 IEnMin=10 EnMin= -56.5464988593809     IErMin=10 ErrMin= 4.23D-09
 ErrMax= 4.23D-09  0.00D+00 EMaxC= 1.00D-01 BMatC= 7.24D-16 BMatP= 6.59D-14
 IDIUse=1 WtCom= 1.00D+00 WtEn= 0.00D+00
 Coeff-Com:  0.543D-06-0.970D-06-0.755D-07-0.316D-04 0.111D-03 0.361D-03
 Coeff-Com: -0.742D-02 0.465D-01-0.222D+00 0.118D+01
 Coeff:      0.543D-06-0.970D-06-0.755D-07-0.316D-04 0.111D-03 0.361D-03
 Coeff:     -0.742D-02 0.465D-01-0.222D+00 0.118D+01
 Gap=     0.391 Goal=   None    Shift=    0.000
 RMSDP=1.97D-09 MaxDP=1.35D-08 DE=-6.39D-13 OVMax= 3.17D-08

 SCF Done:  E(RwB97XD) =  -56.5464988594     A.U. after   10 cycles
            NFock= 10  Conv=0.20D-08     -V/T= 2.0101
 KE= 5.598044590235D+01 PE=-1.555668572327D+02 EE= 3.110761726552D+01
 Leave Link  502 at Wed Dec 29 11:03:36 2021, MaxMem=   131072000 cpu:               8.9 elap:               1.3
 (Enter /public/scc/g16/g16/l601.exe)
 Copying SCF densities to generalized density rwf, IOpCl= 0 IROHF=0.

 **********************************************************************

            Population analysis using the SCF density.

 **********************************************************************

 Orbital symmetries:
       Occupied  (A') (A') (A") (A') (A')
       Virtual   (A') (A") (A') (A') (A') (A') (A") (A') (A") (A')
                 (A') (A") (A') (A') (A") (A') (A') (A") (A') (A')
                 (A") (A") (A') (A') (A") (A') (A') (A") (A') (A")
                 (A') (A')
 The electronic state is 1-A'.
 Alpha  occ. eigenvalues --  -14.43709  -0.95341  -0.55280  -0.55273  -0.34954
 Alpha virt. eigenvalues --    0.04147   0.07724   0.07725   0.18261   0.21714
 Alpha virt. eigenvalues --    0.23927   0.23929   0.29160   0.29164   0.36733
 Alpha virt. eigenvalues --    0.97058   0.99925   0.99927   1.01580   1.01594
 Alpha virt. eigenvalues --    1.17992   1.31568   1.49941   1.49951   1.95439
 Alpha virt. eigenvalues --    2.15970   2.34599   2.34615   2.49459   2.49481
 Alpha virt. eigenvalues --    2.85397   3.05700   3.05714   3.37176   3.53686
 Alpha virt. eigenvalues --    3.53693   4.13123
          Condensed to atoms (all electrons):
               1          2          3          4
     1  N    6.784210   0.362576   0.362616   0.362616
     2  H    0.362576   0.427260  -0.040243  -0.040243
     3  H    0.362616  -0.040243   0.427168  -0.040225
     4  H    0.362616  -0.040243  -0.040225   0.427168
 Mulliken charges:
               1
     1  N   -0.872018
     2  H    0.290650
     3  H    0.290684
     4  H    0.290684
 Sum of Mulliken charges =   0.00000
 Mulliken charges with hydrogens summed into heavy atoms:
               1
     1  N    0.000000
 Electronic spatial extent (au):  <R**2>=             27.0082
 Charge=              0.0000 electrons
 Dipole moment (field-independent basis, Debye):
    X=             -0.0003    Y=             -1.7865    Z=              0.0000  Tot=              1.7865
 Quadrupole moment (field-independent basis, Debye-Ang):
   XX=             -6.1876   YY=             -9.7059   ZZ=             -6.1862
   XY=             -0.0013   XZ=             -0.0000   YZ=             -0.0000
 Traceless Quadrupole moment (field-independent basis, Debye-Ang):
   XX=              1.1723   YY=             -2.3460   ZZ=              1.1737
   XY=             -0.0013   XZ=             -0.0000   YZ=             -0.0000
 Octapole moment (field-independent basis, Debye-Ang**2):
  XXX=              0.9446  YYY=             -1.8720  ZZZ=              0.0000  XYY=              0.0002
  XXY=             -0.9727  XXZ=              0.0000  XZZ=             -0.9456  YZZ=             -0.9724
  YYZ=              0.0000  XYZ=              0.0000
 Hexadecapole moment (field-independent basis, Debye-Ang**3):
 XXXX=            -10.3365 YYYY=            -14.3579 ZZZZ=            -10.3349 XXXY=             -0.3373
 XXXZ=             -0.0000 YYYX=             -0.0004 YYYZ=              0.0000 ZZZX=             -0.0000
 ZZZY=              0.0000 XXYY=             -4.2053 XXZZ=             -3.4452 YYZZ=             -4.2057
 XXYZ=              0.0000 YYXZ=              0.0000 ZZXY=              0.3364
 N-N= 1.193229520547D+01 E-N=-1.555668572908D+02  KE= 5.598044590235D+01
 Symmetry A'   KE= 5.332998284043D+01
 Symmetry A"   KE= 2.650463061920D+00
 No NMR shielding tensors so no spin-rotation constants.
 Leave Link  601 at Wed Dec 29 11:03:36 2021, MaxMem=   131072000 cpu:               2.0 elap:               0.4
 (Enter /public/scc/g16/g16/l701.exe)
 ... and contract with generalized density number  0.
 Compute integral first derivatives.
 R6Disp: Adding Grimme-D2 dispersion energy 1st derivatives to the gradient.
 Leave Link  701 at Wed Dec 29 11:03:37 2021, MaxMem=   131072000 cpu:               1.2 elap:               0.2
 (Enter /public/scc/g16/g16/l702.exe)
 L702 exits ... SP integral derivatives will be done elsewhere.
 Leave Link  702 at Wed Dec 29 11:03:37 2021, MaxMem=   131072000 cpu:               0.2 elap:               0.0
 (Enter /public/scc/g16/g16/l703.exe)
 Integral derivatives from FoFJK, PRISM(SPDF).
 Compute integral first derivatives, UseDBF=F ICtDFT=           0.
 Calling FoFJK, ICntrl=      2127 FMM=F ISym2X=1 I1Cent= 0 IOpClX= 0 NMat=1 NMatS=1 NMatT=0.
 FoFJK:  IHMeth= 1 ICntrl=    2127 DoSepK=T KAlg= 0 I1Cent=           0 FoldK=F
 IRaf=         1 NMat=       1 IRICut=       1 DoRegI=T DoRafI=F ISym2E= 1 IDoP0=0 IntGTp=1.
 FoFCou: FMM=F IPFlag=           0 FMFlag=      100000 FMFlg1=         800
         NFxFlg=           0 DoJE=F BraDBF=F KetDBF=F FulRan=T
         wScrn=  0.000000 ICntrl=      2527 IOpCl=  0 I1Cent=           0 NGrid=           0
         NMat0=    1 NMatS0=      1 NMatT0=    0 NMatD0=    1 NMtDS0=    0 NMtDT0=    0
 Petite list used in FoFCou.
 Leave Link  703 at Wed Dec 29 11:03:37 2021, MaxMem=   131072000 cpu:               5.0 elap:               0.8
 (Enter /public/scc/g16/g16/l716.exe)
 Dipole        =-1.15714865D-04-7.02858655D-01 0.00000000D+00
 ***** Axes restored to original set *****
 -------------------------------------------------------------------
 Center     Atomic                   Forces (Hartrees/Bohr)
 Number     Number              X              Y              Z
 -------------------------------------------------------------------
      1        7           0.000082447   -0.000066195   -0.000000000
      2        1          -0.000052909    0.000040059    0.000000000
      3        1          -0.000014769    0.000013068   -0.000036392
      4        1          -0.000014769    0.000013068    0.000036392
 -------------------------------------------------------------------
 Cartesian Forces:  Max     0.000082447 RMS     0.000039801
 Leave Link  716 at Wed Dec 29 11:03:38 2021, MaxMem=   131072000 cpu:               0.2 elap:               0.0
 (Enter /public/scc/g16/g16/l103.exe)

 GradGradGradGradGradGradGradGradGradGradGradGradGradGradGradGradGradGrad
 Berny optimization.
 FormGI is forming the generalized inverse of G from B-inverse, IUseBI=4.
 Internal  Forces:  Max     0.000064295 RMS     0.000035156
 Search for a local minimum.
 Step number   1 out of a maximum of   20
 All quantities printed in internal units (Hartrees-Bohrs-Radians)
 RMS Force = .35156D-04 SwitMx=.10000D-02 MixMth= 2
 Mixed Optimization -- En-DIIS/RFO-DIIS
 Second derivative matrix not updated -- first step.
 The second derivative matrix:
                          R1        R2        R3        A1        A2
           R1           0.45408
           R2           0.00000   0.45415
           R3           0.00000   0.00000   0.45415
           A1           0.00000   0.00000   0.00000   0.16000
           A2           0.00000   0.00000   0.00000   0.00000   0.16000
           A3           0.00000   0.00000   0.00000   0.00000   0.00000
           D1           0.00000   0.00000   0.00000   0.00000   0.00000
                          A3        D1
           A3           0.16000
           D1           0.00000   0.00852
 ITU=  0
     Eigenvalues ---    0.05913   0.16000   0.16000   0.45408   0.45415
     Eigenvalues ---    0.45415
 RFO step:  Lambda=-3.62262911D-08 EMin= 5.91334589D-02
 Linear search not attempted -- first point.
 Iteration  1 RMS(Cart)=  0.00013905 RMS(Int)=  0.00000002
 Iteration  2 RMS(Cart)=  0.00000002 RMS(Int)=  0.00000000
 ITry= 1 IFail=0 DXMaxC= 1.58D-04 DCOld= 1.00D+10 DXMaxT= 3.00D-01 DXLimC= 3.00D+00 Rises=F
 ClnCor:  largest displacement from symmetrization is 6.82D-06 for atom     4.
 Variable       Old X    -DE/DX   Delta X   Delta X   Delta X     New X
                                 (Linear)    (Quad)   (Total)
    R1        1.91505  -0.00006   0.00000  -0.00014  -0.00014   1.91491
    R2        1.91497  -0.00003   0.00000  -0.00006  -0.00006   1.91491
    R3        1.91497  -0.00003   0.00000  -0.00006  -0.00006   1.91491
    A1        1.89013   0.00002   0.00000   0.00023   0.00023   1.89036
    A2        1.89013   0.00003   0.00000   0.00024   0.00023   1.89036
    A3        1.89060  -0.00004   0.00000  -0.00020  -0.00019   1.89040
    D1        2.04633   0.00002   0.00000   0.00029   0.00029   2.04662
         Item               Value     Threshold  Converged?
 Maximum Force            0.000064     0.000450     YES
 RMS     Force            0.000035     0.000300     YES
 Maximum Displacement     0.000158     0.001800     YES
 RMS     Displacement     0.000139     0.001200     YES
 Predicted change in Energy=-1.810651D-08
 Optimization completed.
    -- Stationary point found.
                           ----------------------------
                           !   Optimized Parameters   !
                           ! (Angstroms and Degrees)  !
 --------------------------                            --------------------------
 ! Name  Definition              Value          Derivative Info.                !
 --------------------------------------------------------------------------------
 ! R1    R(1,2)                  1.0134         -DE/DX =   -0.0001              !
 ! R2    R(1,3)                  1.0134         -DE/DX =    0.0                 !
 ! R3    R(1,4)                  1.0134         -DE/DX =    0.0                 !
 ! A1    A(2,1,3)              108.2964         -DE/DX =    0.0                 !
 ! A2    A(2,1,4)              108.2964         -DE/DX =    0.0                 !
 ! A3    A(3,1,4)              108.3233         -DE/DX =    0.0                 !
 ! D1    D(2,1,4,3)            117.2459         -DE/DX =    0.0                 !
 --------------------------------------------------------------------------------
 Lowest energy point so far.  Saving SCF results.
 Largest change from initial coordinates is atom    2       0.000 Angstoms.
 GradGradGradGradGradGradGradGradGradGradGradGradGradGradGradGradGradGrad

 Leave Link  103 at Wed Dec 29 11:03:38 2021, MaxMem=   131072000 cpu:               0.1 elap:               0.0
 (Enter /public/scc/g16/g16/l202.exe)
                          Input orientation:                          
 ---------------------------------------------------------------------
 Center     Atomic      Atomic             Coordinates (Angstroms)
 Number     Number       Type             X           Y           Z
 ---------------------------------------------------------------------
      1          7           0        0.000000    0.107000   -0.000000
      2          1           0        0.948400   -0.250100    0.000000
      3          1           0       -0.474200   -0.249600    0.821500
      4          1           0       -0.474200   -0.249600   -0.821500
 ---------------------------------------------------------------------
                    Distance matrix (angstroms):
                    1          2          3          4
     1  N    0.000000
     2  H    1.013402   0.000000
     3  H    1.013357   1.642758   0.000000
     4  H    1.013357   1.642758   1.643000   0.000000
 Stoichiometry    H3N
 Framework group  CS[SG(HN),X(H2)]
 Deg. of freedom     4
 Full point group                 CS      NOp   2
 RotChk:  IX=0 Diff= 1.45D-12
 Largest Abelian subgroup         CS      NOp   2
 Largest concise Abelian subgroup CS      NOp   2
                         Standard orientation:                         
 ---------------------------------------------------------------------
 Center     Atomic      Atomic             Coordinates (Angstroms)
 Number     Number       Type             X           Y           Z
 ---------------------------------------------------------------------
      1          7           0       -0.000000    0.107030   -0.000000
      2          1           0        0.948400   -0.250070    0.000000
      3          1           0       -0.474200   -0.249570    0.821500
      4          1           0       -0.474200   -0.249570   -0.821500
 ---------------------------------------------------------------------
 Rotational constants (GHZ):         301.4938120         301.3976895         185.7985315
 Leave Link  202 at Wed Dec 29 11:03:38 2021, MaxMem=   131072000 cpu:               0.1 elap:               0.0
 (Enter /public/scc/g16/g16/l9999.exe)
 1\1\GINC-NODE27\FOpt\RwB97XD\6-31++G(d,p)\H3N1\ROOT\29-Dec-2021\0\\#p 
 wB97XD/6-31++G(d,p) opt freq\\aaaaa\\0,1\N,0.,0.107,0.\H,0.9484,-0.250
 1,0.\H,-0.4742,-0.2496,0.8215\H,-0.4742,-0.2496,-0.8215\\Version=ES64L
 -G16RevA.03\State=1-A'\HF=-56.5464989\RMSD=1.973e-09\RMSF=3.980e-05\Di
 pole=-0.0001157,-0.7028587,0.\Quadrupole=0.871569,-1.7441958,0.8726268
 ,-0.0009902,0.,0.\PG=CS [SG(H1N1),X(H2)]\\@


 NOTHING RESEMBLES A NEW PHENOMENON AS MUCH AS A MISTAKE.

                               -- ENRICO FERMI (?)
 Leave Link 9999 at Wed Dec 29 11:03:38 2021, MaxMem=   131072000 cpu:               0.5 elap:               0.1
 Job cpu time:       0 days  0 hours  0 minutes 23.9 seconds.
 Elapsed time:       0 days  0 hours  0 minutes  4.0 seconds.
 File lengths (MBytes):  RWF=      6 Int=      0 D2E=      0 Chk=      2 Scr=      1
 Normal termination of Gaussian 16 at Wed Dec 29 11:03:38 2021.
 (Enter /public/scc/g16/g16/l1.exe)
 Link1:  Proceeding to internal job step number  2.
 ----------------------------------------------------------------------
 #P Geom=AllCheck Guess=TCheck SCRF=Check GenChk RwB97XD/6-31++G(d,p) F
 req
 ----------------------------------------------------------------------
 1/10=4,29=7,30=1,38=1,40=1/1,3;
 2/12=2,40=1/2;
 3/5=1,6=6,7=1111,11=2,14=-4,25=1,30=1,70=2,71=2,74=-58,116=1,140=1/1,2,3;
 4/5=101/1;
 5/5=2,38=6,98=1/2;
 8/6=4,10=90,11=11/1;
 11/6=1,8=1,9=11,15=111,16=1/1,2,10;
 10/6=1/2;
 6/7=2,8=2,9=2,10=2,28=1/1;
 7/8=1,10=1,25=1/1,2,3,16;
 1/10=4,30=1/3;
 99//99;
 Leave Link    1 at Wed Dec 29 11:03:38 2021, MaxMem=   131072000 cpu:               0.3 elap:               0.0
 (Enter /public/scc/g16/g16/l101.exe)
 Structure from the checkpoint file:  "Am.chk"
 -----
 aaaaa
 -----
 Charge =  0 Multiplicity = 1
 Redundant internal coordinates found in file.  (old form).
 N,0,0.,0.107,0.
 H,0,0.9484,-0.2501,0.
 H,0,-0.4742,-0.2496,0.8215
 H,0,-0.4742,-0.2496,-0.8215
 Recover connectivity data from disk.
 ITRead=  0  0  0  0
 MicOpt= -1 -1 -1 -1
 NAtoms=      4 NQM=        4 NQMF=       0 NMMI=      0 NMMIF=      0
                NMic=       0 NMicF=      0.
                    Isotopes and Nuclear Properties:
 (Nuclear quadrupole moments (NQMom) in fm**2, nuclear magnetic moments (NMagM)
  in nuclear magnetons)

  Atom         1           2           3           4
 IAtWgt=          14           1           1           1
 AtmWgt=  14.0030740   1.0078250   1.0078250   1.0078250
 NucSpn=           2           1           1           1
 AtZEff=   4.5500000   1.0000000   1.0000000   1.0000000
 NQMom=    2.0440000   0.0000000   0.0000000   0.0000000
 NMagM=    0.4037610   2.7928460   2.7928460   2.7928460
 AtZNuc=   7.0000000   1.0000000   1.0000000   1.0000000
 Leave Link  101 at Wed Dec 29 11:03:38 2021, MaxMem=   131072000 cpu:               0.8 elap:               0.1
 (Enter /public/scc/g16/g16/l103.exe)

 GradGradGradGradGradGradGradGradGradGradGradGradGradGradGradGradGradGrad
 Berny optimization.
 Initialization pass.
                           ----------------------------
                           !    Initial Parameters    !
                           ! (Angstroms and Degrees)  !
 --------------------------                            --------------------------
 ! Name  Definition              Value          Derivative Info.                !
 --------------------------------------------------------------------------------
 ! R1    R(1,2)                  1.0134         calculate D2E/DX2 analytically  !
 ! R2    R(1,3)                  1.0134         calculate D2E/DX2 analytically  !
 ! R3    R(1,4)                  1.0134         calculate D2E/DX2 analytically  !
 ! A1    A(2,1,3)              108.2964         calculate D2E/DX2 analytically  !
 ! A2    A(2,1,4)              108.2964         calculate D2E/DX2 analytically  !
 ! A3    A(3,1,4)              108.3233         calculate D2E/DX2 analytically  !
 ! D1    D(2,1,4,3)            117.2459         calculate D2E/DX2 analytically  !
 --------------------------------------------------------------------------------
 Trust Radius=3.00D-01 FncErr=1.00D-07 GrdErr=1.00D-07 EigMax=2.50D+02 EigMin=1.00D-04
 Number of steps in this run=      2 maximum allowed number of steps=      2.
 GradGradGradGradGradGradGradGradGradGradGradGradGradGradGradGradGradGrad

 Leave Link  103 at Wed Dec 29 11:03:38 2021, MaxMem=   131072000 cpu:               0.3 elap:               0.1
 (Enter /public/scc/g16/g16/l202.exe)
                          Input orientation:                          
 ---------------------------------------------------------------------
 Center     Atomic      Atomic             Coordinates (Angstroms)
 Number     Number       Type             X           Y           Z
 ---------------------------------------------------------------------
      1          7           0        0.000000    0.107000   -0.000000
      2          1           0        0.948400   -0.250100    0.000000
      3          1           0       -0.474200   -0.249600    0.821500
      4          1           0       -0.474200   -0.249600   -0.821500
 ---------------------------------------------------------------------
                    Distance matrix (angstroms):
                    1          2          3          4
     1  N    0.000000
     2  H    1.013402   0.000000
     3  H    1.013357   1.642758   0.000000
     4  H    1.013357   1.642758   1.643000   0.000000
 Stoichiometry    H3N
 Framework group  CS[SG(HN),X(H2)]
 Deg. of freedom     4
 Full point group                 CS      NOp   2
 RotChk:  IX=0 Diff= 2.41D-12
 Largest Abelian subgroup         CS      NOp   2
 Largest concise Abelian subgroup CS      NOp   2
                         Standard orientation:                         
 ---------------------------------------------------------------------
 Center     Atomic      Atomic             Coordinates (Angstroms)
 Number     Number       Type             X           Y           Z
 ---------------------------------------------------------------------
      1          7           0        0.000000    0.107030   -0.000000
      2          1           0        0.948400   -0.250070   -0.000000
      3          1           0       -0.474200   -0.249570    0.821500
      4          1           0       -0.474200   -0.249570   -0.821500
 ---------------------------------------------------------------------
 Rotational constants (GHZ):         301.4938120         301.3976895         185.7985315
 Leave Link  202 at Wed Dec 29 11:03:38 2021, MaxMem=   131072000 cpu:               0.1 elap:               0.0
 (Enter /public/scc/g16/g16/l301.exe)
 Standard basis: 6-31++G(d,p) (6D, 7F)
 Ernie: Thresh=  0.10000D-02 Tol=  0.10000D-05 Strict=F.
 There are    25 symmetry adapted cartesian basis functions of A'  symmetry.
 There are    12 symmetry adapted cartesian basis functions of A"  symmetry.
 There are    25 symmetry adapted basis functions of A'  symmetry.
 There are    12 symmetry adapted basis functions of A"  symmetry.
    37 basis functions,    56 primitive gaussians,    37 cartesian basis functions
     5 alpha electrons        5 beta electrons
       nuclear repulsion energy        11.9324220784 Hartrees.
 IExCor= 4639 DFT=T Ex+Corr=wB97XD ExCW=0 ScaHFX=  1.000000
 ScaDFX=  1.000000  1.000000  1.000000  1.000000 ScalE2=  1.000000  1.000000
 IRadAn=      5 IRanWt=     -1 IRanGd=            0 ICorTp=0 IEmpDi=121
 HFx  wShort=  0.000000 wLong=  0.200000 cFull=  0.222036 cShort=  0.000000 cLong=  0.777964
 DFx  wShort=  0.000000 wLong=  0.200000 cFull=  0.000000 cShort=  0.000000 cLong=  1.000000
 NAtoms=    4 NActive=    4 NUniq=    3 SFac= 1.78D+00 NAtFMM=   60 NAOKFM=F Big=F
 Integral buffers will be    131072 words long.
 Raffenetti 2 integral format.
 Two-electron integral symmetry is turned on.
 R6Disp:  Grimme-D2 Dispersion energy=       -0.0001268729 Hartrees.
 Nuclear repulsion after empirical dispersion term =       11.9322952055 Hartrees.
 Leave Link  301 at Wed Dec 29 11:03:38 2021, MaxMem=   131072000 cpu:               0.3 elap:               0.1
 (Enter /public/scc/g16/g16/l302.exe)
 NPDir=0 NMtPBC=     1 NCelOv=     1 NCel=       1 NClECP=     1 NCelD=      1
         NCelK=      1 NCelE2=     1 NClLst=     1 CellRange=     0.0.
 One-electron integrals computed using PRISM.
 One-electron integral symmetry used in STVInt
 NBasis=    37 RedAO= T EigKep=  1.06D-02  NBF=    25    12
 NBsUse=    37 1.00D-06 EigRej= -1.00D+00 NBFU=    25    12
 Precomputing XC quadrature grid using
 IXCGrd= 4 IRadAn=           5 IRanWt=          -1 IRanGd=           0 AccXCQ= 0.00D+00.
 Generated NRdTot=       0 NPtTot=           0 NUsed=           0 NTot=          32
 NSgBfM=    37    37    37    37    37 MxSgAt=     4 MxSgA2=     4.
 Leave Link  302 at Wed Dec 29 11:03:38 2021, MaxMem=   131072000 cpu:               1.1 elap:               0.2
 (Enter /public/scc/g16/g16/l303.exe)
 DipDrv:  MaxL=1.
 Leave Link  303 at Wed Dec 29 11:03:38 2021, MaxMem=   131072000 cpu:               0.2 elap:               0.0
 (Enter /public/scc/g16/g16/l401.exe)
 Initial guess from the checkpoint file:  "Am.chk"
 B after Tr=     0.000000   -0.000000    0.000000
         Rot=    1.000000    0.000000    0.000000    0.000000 Ang=   0.00 deg.
 Guess basis will be translated and rotated to current coordinates.
 JPrj=2 DoOrth=T DoCkMO=T.
 Initial guess orbital symmetries:
       Occupied  (A') (A') (A") (A') (A')
       Virtual   (A') (A") (A') (A') (A') (A') (A") (A') (A") (A')
                 (A') (A") (A') (A') (A") (A') (A') (A") (A') (A')
                 (A") (A") (A') (A') (A") (A') (A') (A") (A') (A")
                 (A') (A')
 The electronic state of the initial guess is 1-A'.
 Leave Link  401 at Wed Dec 29 11:03:39 2021, MaxMem=   131072000 cpu:               0.5 elap:               0.1
 (Enter /public/scc/g16/g16/l502.exe)
 Keep R1 ints in memory in symmetry-blocked form, NReq=7399684.
 FoFCou: FMM=F IPFlag=           0 FMFlag=           0 FMFlg1=           0
         NFxFlg=           0 DoJE=F BraDBF=F KetDBF=F FulRan=T
         wScrn=  0.000000 ICntrl=       600 IOpCl=  0 I1Cent=           0 NGrid=           0
         NMat0=    1 NMatS0=    703 NMatT0=    0 NMatD0=    1 NMtDS0=    0 NMtDT0=    0
 Petite list used in FoFCou.
 Closed shell SCF:
 Using DIIS extrapolation, IDIIS=  1040.
 NGot=   131072000 LenX=   130939936 LenY=   130938126
 Requested convergence on RMS density matrix=1.00D-08 within 128 cycles.
 Requested convergence on MAX density matrix=1.00D-06.
 Requested convergence on             energy=1.00D-06.
 No special actions if energy rises.

 Cycle   1  Pass 1  IDiag  1:
 E= -56.5464988593806    
 DIIS: error= 3.78D-10 at cycle   1 NSaved=   1.
 NSaved= 1 IEnMin= 1 EnMin= -56.5464988593806     IErMin= 1 ErrMin= 3.78D-10
 ErrMax= 3.78D-10  0.00D+00 EMaxC= 1.00D-01 BMatC= 9.71D-18 BMatP= 9.71D-18
 IDIUse=1 WtCom= 1.00D+00 WtEn= 0.00D+00
 Coeff-Com:  0.100D+01
 Coeff:      0.100D+01
 Gap=     0.391 Goal=   None    Shift=    0.000
 RMSDP=2.97D-10 MaxDP=2.39D-09              OVMax= 3.22D-09

 SCF Done:  E(RwB97XD) =  -56.5464988594     A.U. after    1 cycles
            NFock=  1  Conv=0.30D-09     -V/T= 2.0101
 KE= 5.598044591802D+01 PE=-1.555668573064D+02 EE= 3.110761732355D+01
 Leave Link  502 at Wed Dec 29 11:03:39 2021, MaxMem=   131072000 cpu:               3.2 elap:               0.4
 (Enter /public/scc/g16/g16/l801.exe)
 DoSCS=F DFT=T ScalE2(SS,OS)=  1.000000  1.000000
 Range of M.O.s used for correlation:     1    37
 NBasis=    37 NAE=     5 NBE=     5 NFC=     0 NFV=     0
 NROrb=     37 NOA=     5 NOB=     5 NVA=    32 NVB=    32
 Leave Link  801 at Wed Dec 29 11:03:39 2021, MaxMem=   131072000 cpu:               0.1 elap:               0.0
 (Enter /public/scc/g16/g16/l1101.exe)
 Using compressed storage, NAtomX=     4.
 Will process      5 centers per pass.
 R6Disp: Adding Grimme-D2 dispersion energy 1st derivatives to the gradient.
 Leave Link 1101 at Wed Dec 29 11:03:39 2021, MaxMem=   131072000 cpu:               1.3 elap:               0.2
 (Enter /public/scc/g16/g16/l1102.exe)
 Symmetrizing basis deriv contribution to polar:
 IMax=3 JMax=2 DiffMx= 0.00D+00
 Leave Link 1102 at Wed Dec 29 11:03:40 2021, MaxMem=   131072000 cpu:               0.4 elap:               0.1
 (Enter /public/scc/g16/g16/l1110.exe)
 Forming Gx(P) for the SCF density, NAtomX=     4.
 Integral derivatives from FoFJK, PRISM(SPDF).
 Do as many integral derivatives as possible in FoFJK.
 G2DrvN: MDV=     131071584.
 G2DrvN: will do     5 centers at a time, making    1 passes.
 Calling FoFCou, ICntrl=  3107 FMM=F I1Cent=   0 AccDes= 0.00D+00.
 FoFJK:  IHMeth= 1 ICntrl=    3107 DoSepK=T KAlg= 0 I1Cent=           0 FoldK=F
 IRaf=         1 NMat=       1 IRICut=       1 DoRegI=T DoRafI=F ISym2E= 1 IDoP0=0 IntGTp=1.
 FoFCou: FMM=F IPFlag=           0 FMFlag=      100000 FMFlg1=           0
         NFxFlg=           0 DoJE=F BraDBF=F KetDBF=F FulRan=T
         wScrn=  0.000000 ICntrl=      3507 IOpCl=  0 I1Cent=           0 NGrid=           0
         NMat0=    1 NMatS0=      1 NMatT0=    0 NMatD0=    1 NMtDS0=    0 NMtDT0=    0
 Petite list used in FoFCou.
 End of G2Drv F.D. properties file   721 does not exist.
 End of G2Drv F.D. properties file   722 does not exist.
 End of G2Drv F.D. properties file   788 does not exist.
 Leave Link 1110 at Wed Dec 29 11:03:41 2021, MaxMem=   131072000 cpu:               6.2 elap:               1.0
 (Enter /public/scc/g16/g16/l1002.exe)
 Minotr:  Closed shell wavefunction.
          IDoAtm=1111
          Direct CPHF calculation.
          Differentiating once with respect to electric field.
                with respect to dipole field.
          Differentiating once with respect to nuclear coordinates.
          Using symmetry in CPHF.
          Requested convergence is 1.0D-08 RMS, and 1.0D-07 maximum.
          Secondary convergence is 1.0D-12 RMS, and 1.0D-12 maximum.
          NewPWx=T KeepS1=F KeepF1=F KeepIn=T MapXYZ=F SortEE=F KeepMc=T.
         1221 words used for storage of precomputed grid.
 Keep R1 ints in memory in symmetry-blocked form, NReq=7375382.
 FoFCou: FMM=F IPFlag=           0 FMFlag=           0 FMFlg1=           0
         NFxFlg=           0 DoJE=F BraDBF=F KetDBF=F FulRan=T
         wScrn=  0.000000 ICntrl=       600 IOpCl=  0 I1Cent=           0 NGrid=           0
         NMat0=    1 NMatS0=    703 NMatT0=    0 NMatD0=    1 NMtDS0=    0 NMtDT0=    0
 Petite list used in FoFCou.
          MDV=     131072000 using IRadAn=       1.
          Solving linear equations simultaneously, MaxMat=       0.
          There are    12 degrees of freedom in the 1st order CPHF.  IDoFFX=4 NUNeed=    12.
     12 vectors produced by pass  0 Test12= 1.33D-15 8.33D-09 XBig12= 3.44D+00 1.13D+00.
 AX will form    12 AO Fock derivatives at one time.
     12 vectors produced by pass  1 Test12= 1.33D-15 8.33D-09 XBig12= 3.14D-01 2.64D-01.
     12 vectors produced by pass  2 Test12= 1.33D-15 8.33D-09 XBig12= 8.81D-03 4.53D-02.
     12 vectors produced by pass  3 Test12= 1.33D-15 8.33D-09 XBig12= 3.48D-05 2.14D-03.
     12 vectors produced by pass  4 Test12= 1.33D-15 8.33D-09 XBig12= 1.43D-07 1.92D-04.
     11 vectors produced by pass  5 Test12= 1.33D-15 8.33D-09 XBig12= 3.49D-10 6.28D-06.
      5 vectors produced by pass  6 Test12= 1.33D-15 8.33D-09 XBig12= 7.51D-13 2.51D-07.
      1 vectors produced by pass  7 Test12= 1.33D-15 8.33D-09 XBig12= 1.91D-15 1.44D-08.
 InvSVY:  IOpt=1 It=  1 EMax= 5.42D-16
 Solved reduced A of dimension    77 with    12 vectors.
 FullF1:  Do perturbations      1 to      12.
 Isotropic polarizability for W=    0.000000       10.88 Bohr**3.
 End of Minotr F.D. properties file   721 does not exist.
 End of Minotr F.D. properties file   722 does not exist.
 End of Minotr F.D. properties file   788 does not exist.
 Leave Link 1002 at Wed Dec 29 11:03:42 2021, MaxMem=   131072000 cpu:               9.4 elap:               1.3
 (Enter /public/scc/g16/g16/l601.exe)
 Copying SCF densities to generalized density rwf, IOpCl= 0 IROHF=0.

 **********************************************************************

            Population analysis using the SCF density.

 **********************************************************************

 Orbital symmetries:
       Occupied  (A') (A') (A") (A') (A')
       Virtual   (A') (A") (A') (A') (A') (A') (A") (A') (A") (A')
                 (A') (A") (A') (A') (A") (A') (A') (A") (A') (A')
                 (A") (A") (A') (A') (A") (A') (A') (A") (A') (A")
                 (A') (A')
 The electronic state is 1-A'.
 Alpha  occ. eigenvalues --  -14.43709  -0.95341  -0.55280  -0.55273  -0.34954
 Alpha virt. eigenvalues --    0.04147   0.07724   0.07725   0.18261   0.21714
 Alpha virt. eigenvalues --    0.23927   0.23929   0.29160   0.29164   0.36733
 Alpha virt. eigenvalues --    0.97058   0.99925   0.99927   1.01580   1.01594
 Alpha virt. eigenvalues --    1.17992   1.31568   1.49941   1.49951   1.95439
 Alpha virt. eigenvalues --    2.15970   2.34599   2.34615   2.49459   2.49481
 Alpha virt. eigenvalues --    2.85397   3.05700   3.05714   3.37176   3.53686
 Alpha virt. eigenvalues --    3.53693   4.13123
          Condensed to atoms (all electrons):
               1          2          3          4
     1  N    6.784210   0.362576   0.362616   0.362616
     2  H    0.362576   0.427260  -0.040243  -0.040243
     3  H    0.362616  -0.040243   0.427168  -0.040225
     4  H    0.362616  -0.040243  -0.040225   0.427168
 Mulliken charges:
               1
     1  N   -0.872018
     2  H    0.290650
     3  H    0.290684
     4  H    0.290684
 Sum of Mulliken charges =   0.00000
 Mulliken charges with hydrogens summed into heavy atoms:
               1
     1  N    0.000000
 APT charges:
               1
     1  N   -0.540760
     2  H    0.180106
     3  H    0.180327
     4  H    0.180327
 Sum of APT charges =   0.00000
 APT charges with hydrogens summed into heavy atoms:
               1
     1  N    0.000000
 Electronic spatial extent (au):  <R**2>=             27.0082
 Charge=             -0.0000 electrons
 Dipole moment (field-independent basis, Debye):
    X=             -0.0003    Y=             -1.7865    Z=              0.0000  Tot=              1.7865
 Quadrupole moment (field-independent basis, Debye-Ang):
   XX=             -6.1876   YY=             -9.7059   ZZ=             -6.1862
   XY=             -0.0013   XZ=              0.0000   YZ=             -0.0000
 Traceless Quadrupole moment (field-independent basis, Debye-Ang):
   XX=              1.1723   YY=             -2.3460   ZZ=              1.1737
   XY=             -0.0013   XZ=              0.0000   YZ=             -0.0000
 Octapole moment (field-independent basis, Debye-Ang**2):
  XXX=              0.9446  YYY=             -1.8720  ZZZ=             -0.0000  XYY=              0.0002
  XXY=             -0.9727  XXZ=              0.0000  XZZ=             -0.9456  YZZ=             -0.9724
  YYZ=             -0.0000  XYZ=              0.0000
 Hexadecapole moment (field-independent basis, Debye-Ang**3):
 XXXX=            -10.3365 YYYY=            -14.3579 ZZZZ=            -10.3349 XXXY=             -0.3373
 XXXZ=              0.0000 YYYX=             -0.0004 YYYZ=              0.0000 ZZZX=              0.0000
 ZZZY=             -0.0000 XXYY=             -4.2053 XXZZ=             -3.4452 YYZZ=             -4.2057
 XXYZ=              0.0000 YYXZ=              0.0000 ZZXY=              0.3364
 N-N= 1.193229520547D+01 E-N=-1.555668573207D+02  KE= 5.598044591802D+01
 Symmetry A'   KE= 5.332998285217D+01
 Symmetry A"   KE= 2.650463065849D+00
  Exact polarizability:  10.465   0.001  11.705   0.000   0.000  10.466
 Approx polarizability:   9.930  -0.001   9.353  -0.000   0.000   9.932
 No NMR shielding tensors so no spin-rotation constants.
 Leave Link  601 at Wed Dec 29 11:03:42 2021, MaxMem=   131072000 cpu:               1.8 elap:               0.3
 (Enter /public/scc/g16/g16/l701.exe)
 ... and contract with generalized density number  0.
 Compute integral second derivatives.
 R6Disp: Adding Grimme-D2 dispersion energy 2nd derivatives to the Hessian.
 Leave Link  701 at Wed Dec 29 11:03:42 2021, MaxMem=   131072000 cpu:               1.8 elap:               0.3
 (Enter /public/scc/g16/g16/l702.exe)
 L702 exits ... SP integral derivatives will be done elsewhere.
 Leave Link  702 at Wed Dec 29 11:03:43 2021, MaxMem=   131072000 cpu:               0.2 elap:               0.0
 (Enter /public/scc/g16/g16/l703.exe)
 Integral derivatives from FoFJK, PRISM(SPDF).
 Compute integral second derivatives, UseDBF=F ICtDFT=           0.
 Calling FoFJK, ICntrl=    100127 FMM=F ISym2X=1 I1Cent= 0 IOpClX= 0 NMat=1 NMatS=1 NMatT=0.
 FoFJK:  IHMeth= 1 ICntrl=  100127 DoSepK=T KAlg= 0 I1Cent=           0 FoldK=F
 IRaf=         1 NMat=       1 IRICut=       1 DoRegI=T DoRafI=F ISym2E= 1 IDoP0=0 IntGTp=1.
 FoFCou: FMM=F IPFlag=           0 FMFlag=      100000 FMFlg1=         800
         NFxFlg=           0 DoJE=F BraDBF=F KetDBF=F FulRan=T
         wScrn=  0.000000 ICntrl=    100527 IOpCl=  0 I1Cent=           0 NGrid=           0
         NMat0=    1 NMatS0=      1 NMatT0=    0 NMatD0=    1 NMtDS0=    0 NMtDT0=    0
 Petite list used in FoFCou.
 Leave Link  703 at Wed Dec 29 11:03:45 2021, MaxMem=   131072000 cpu:              16.4 elap:               2.4
 (Enter /public/scc/g16/g16/l716.exe)
 Dipole        =-1.15712999D-04-7.02858660D-01 5.59448339D-17
 Polarizability= 1.04647974D+01 1.12975224D-03 1.17050712D+01
                 2.37659119D-11 1.23082731D-10 1.04662077D+01
 Full mass-weighted force constant matrix:
 Low frequencies ---  -34.5346  -16.5011   -0.0013   -0.0006    0.0008   31.0241
 Low frequencies ---  999.4480 1680.2958 1680.8103
 Diagonal vibrational polarizability:
        0.3105571       6.8609592       0.3092992
 Harmonic frequencies (cm**-1), IR intensities (KM/Mole), Raman scattering
 activities (A**4/AMU), depolarization ratios for plane and unpolarized
 incident light, reduced masses (AMU), force constants (mDyne/A),
 and normal coordinates:
                      1                      2                      3
                     A'                     A'                     A"
 Frequencies --    999.4454              1680.2958              1680.8100
 Red. masses --      1.1838                 1.0685                 1.0685
 Frc consts  --      0.6967                 1.7774                 1.7785
 IR Inten    --    254.5626                31.6293                31.5095
  Atom  AN      X      Y      Z        X      Y      Z        X      Y      Z
     1   7    -0.00  -0.12  -0.00    -0.07   0.00   0.00    -0.00   0.00  -0.07
     2   1     0.20   0.54   0.00    -0.13  -0.24  -0.00    -0.00  -0.00   0.77
     3   1    -0.10   0.54   0.17     0.54   0.12   0.39     0.39  -0.21   0.09
     4   1    -0.10   0.54  -0.17     0.54   0.12  -0.39    -0.39   0.21   0.09
                      4                      5                      6
                     A'                     A"                     A'
 Frequencies --   3533.6062              3686.3584              3686.7583
 Red. masses --      1.0243                 1.0918                 1.0918
 Frc consts  --      7.5359                 8.7415                 8.7433
 IR Inten    --      1.2851                 4.6206                 4.5867
  Atom  AN      X      Y      Z        X      Y      Z        X      Y      Z
     1   7     0.00   0.04   0.00     0.00   0.00  -0.08    -0.08   0.00  -0.00
     2   1     0.55  -0.16  -0.00    -0.00   0.00  -0.02     0.77  -0.28  -0.00
     3   1    -0.28  -0.17   0.48    -0.34  -0.24   0.57     0.18   0.14  -0.34
     4   1    -0.28  -0.17  -0.48     0.34   0.24   0.57     0.18   0.14   0.34

 -------------------
 - Thermochemistry -
 -------------------
 Temperature   298.150 Kelvin.  Pressure   1.00000 Atm.
 Atom     1 has atomic number  7 and mass  14.00307
 Atom     2 has atomic number  1 and mass   1.00783
 Atom     3 has atomic number  1 and mass   1.00783
 Atom     4 has atomic number  1 and mass   1.00783
 Molecular mass:    17.02655 amu.
 Principal axes and moments of inertia in atomic units:
                           1         2         3
     Eigenvalues --     5.98600   5.98791   9.71343
           X            0.00000   1.00000   0.00046
           Y            0.00000  -0.00046   1.00000
           Z            1.00000  -0.00000   0.00000
 This molecule is an asymmetric top.
 Rotational symmetry number  1.
 Rotational temperatures (Kelvin)     14.46942    14.46481     8.91692
 Rotational constants (GHZ):         301.49381   301.39769   185.79853
 Zero-point vibrational energy      91318.6 (Joules/Mol)
                                   21.82566 (Kcal/Mol)
 Vibrational temperatures:   1437.98  2417.57  2418.31  5084.07  5303.85
          (Kelvin)           5304.42
 
 Zero-point correction=                           0.034781 (Hartree/Particle)
 Thermal correction to Energy=                    0.037655
 Thermal correction to Enthalpy=                  0.038600
 Thermal correction to Gibbs Free Energy=         0.015716
 Sum of electronic and zero-point Energies=            -56.511717
 Sum of electronic and thermal Energies=               -56.508843
 Sum of electronic and thermal Enthalpies=             -56.507899
 Sum of electronic and thermal Free Energies=          -56.530783
 
                     E (Thermal)             CV                S
                      KCal/Mol        Cal/Mol-Kelvin    Cal/Mol-Kelvin
 Total                   23.629              6.418             48.164
 Electronic               0.000              0.000              0.000
 Translational            0.889              2.981             34.441
 Rotational               0.889              2.981             13.618
 Vibrational             21.852              0.456              0.105
                       Q            Log10(Q)             Ln(Q)
 Total Bot       0.590644D-07         -7.228674        -16.644637
 Total V=0       0.588369D+09          8.769650         20.192865
 Vib (Bot)       0.101261D-15        -15.994556        -36.828825
 Vib (V=0)       0.100871D+01          0.003768          0.008676
 Electronic      0.100000D+01          0.000000          0.000000
 Translational   0.276149D+07          6.441144         14.831282
 Rotational      0.211221D+03          2.324738          5.352906
 
                                                                aaaaa
                                                             IR Spectrum
 
      3    3                                                              11                                                         
      6    5                                                              66                      9                                  
      8    3                                                              88                      9                                  
      6    4                                                              10                      9                                  
 
      X    X                                                              XX                      X                                  
                                                                          XX                      X                                  
                                                                                                  X                                  
                                                                                                  X                                  
                                                                                                  X                                  
                                                                                                  X                                  
                                                                                                  X                                  
                                                                                                  X                                  
                                                                                                  X                                  
                                                                                                  X                                  
                                                                                                  X                                  
                                                                                                  X                                  
                                                                                                  X                                  
                                                                                                  X                                  
                                                                                                  X                                  
                                                                                                  X                                  
                                                                                                  X                                  
                                                                                                  X                                  
                                                                                                  X                                  
                                                                                                  X                                  
 
 ***** Axes restored to original set *****
 -------------------------------------------------------------------
 Center     Atomic                   Forces (Hartrees/Bohr)
 Number     Number              X              Y              Z
 -------------------------------------------------------------------
      1        7           0.000082448   -0.000066194   -0.000000000
      2        1          -0.000052909    0.000040059   -0.000000000
      3        1          -0.000014769    0.000013067   -0.000036391
      4        1          -0.000014769    0.000013067    0.000036391
 -------------------------------------------------------------------
 Cartesian Forces:  Max     0.000082448 RMS     0.000039801
 Force constants in Cartesian coordinates: 
                1             2             3             4             5 
      1  0.688405D+00
      2 -0.145177D-03  0.199805D+00
      3  0.000000D+00  0.000000D+00  0.688437D+00
      4 -0.395268D+00  0.118191D+00  0.000000D+00  0.425531D+00
      5  0.172739D+00 -0.668068D-01  0.000000D+00 -0.138610D+00  0.656493D-01
      6  0.000000D+00  0.000000D+00 -0.637599D-01  0.000000D+00  0.000000D+00
      7 -0.146568D+00 -0.590229D-01  0.143608D+00 -0.151316D-01 -0.170645D-01
      8 -0.862967D-01 -0.664992D-01  0.149424D+00  0.102093D-01  0.578773D-03
      9  0.143591D+00  0.102185D+00 -0.312339D+00 -0.420186D-02  0.192583D-02
     10 -0.146568D+00 -0.590229D-01 -0.143608D+00 -0.151316D-01 -0.170645D-01
     11 -0.862967D-01 -0.664992D-01 -0.149424D+00  0.102093D-01  0.578773D-03
     12 -0.143591D+00 -0.102185D+00 -0.312339D+00  0.420186D-02 -0.192583D-02
                6             7             8             9            10 
      6  0.600856D-01
      7  0.335719D-01  0.151392D+00
      8 -0.138305D-01  0.692139D-01  0.653652D-01
      9  0.183715D-02 -0.158285D+00 -0.119852D+00  0.334086D+00
     10 -0.335719D-01  0.103079D-01  0.687349D-02  0.188952D-01  0.151392D+00
     11  0.138305D-01  0.687349D-02  0.555247D-03  0.157415D-01  0.692139D-01
     12  0.183715D-02 -0.188952D-01 -0.157415D-01 -0.235844D-01  0.158285D+00
               11            12 
     11  0.653652D-01
     12  0.119852D+00  0.334086D+00
 FormGI is forming the generalized inverse of G from B-inverse, IUseBI=4.
 Force constants in internal coordinates: 
                1             2             3             4             5 
      1  0.472262D+00
      2 -0.321884D-02  0.472074D+00
      3 -0.321884D-02 -0.322247D-02  0.472074D+00
      4  0.721036D-02  0.723109D-02 -0.844391D-02  0.563494D-01
      5  0.177495D-01 -0.325454D-02  0.202113D-01 -0.439819D-01  0.127062D+00
      6 -0.325151D-02  0.177007D-01  0.201469D-01 -0.439269D-01 -0.238383D-01
      7  0.164134D-01  0.164031D-01  0.118936D-01  0.190671D-01  0.392048D-02
                6             7 
      6  0.127006D+00
      7  0.390779D-02  0.268397D-01
 Leave Link  716 at Wed Dec 29 11:03:45 2021, MaxMem=   131072000 cpu:               0.8 elap:               0.2
 (Enter /public/scc/g16/g16/l103.exe)

 GradGradGradGradGradGradGradGradGradGradGradGradGradGradGradGradGradGrad
 Berny optimization.
 Red2BG is reusing G-inverse.
 Internal  Forces:  Max     0.000064294 RMS     0.000035156
 Search for a local minimum.
 Step number   1 out of a maximum of    2
 All quantities printed in internal units (Hartrees-Bohrs-Radians)
 Second derivative matrix not updated -- analytic derivatives used.
 The second derivative matrix:
                          R1        R2        R3        A1        A2
           R1           0.47226
           R2          -0.00322   0.47207
           R3          -0.00322  -0.00322   0.47207
           A1           0.00721   0.00723  -0.00844   0.05635
           A2           0.01775  -0.00325   0.02021  -0.04398   0.12706
           A3          -0.00325   0.01770   0.02015  -0.04393  -0.02384
           D1           0.01641   0.01640   0.01189   0.01907   0.00392
                          A3        D1
           A3           0.12701
           D1           0.00391   0.02684
 ITU=  0
     Eigenvalues ---    0.03726   0.14418   0.14952   0.46932   0.47663
     Eigenvalues ---    0.47675
 Angle between quadratic step and forces=  49.80 degrees.
 Linear search not attempted -- first point.
 Iteration  1 RMS(Cart)=  0.00018413 RMS(Int)=  0.00000005
 Iteration  2 RMS(Cart)=  0.00000004 RMS(Int)=  0.00000002
 ITry= 1 IFail=0 DXMaxC= 2.80D-04 DCOld= 1.00D+10 DXMaxT= 3.00D-01 DXLimC= 3.00D+00 Rises=F
 ClnCor:  largest displacement from symmetrization is 3.65D-09 for atom     4.
 Variable       Old X    -DE/DX   Delta X   Delta X   Delta X     New X
                                 (Linear)    (Quad)   (Total)
    R1        1.91505  -0.00006   0.00000  -0.00018  -0.00018   1.91488
    R2        1.91497  -0.00003   0.00000  -0.00008  -0.00008   1.91489
    R3        1.91497  -0.00003   0.00000  -0.00008  -0.00008   1.91489
    A1        1.89013   0.00002   0.00000   0.00035   0.00035   1.89048
    A2        1.89013   0.00003   0.00000   0.00035   0.00035   1.89048
    A3        1.89060  -0.00004   0.00000  -0.00012  -0.00012   1.89048
    D1        2.04633   0.00002   0.00000   0.00054   0.00054   2.04687
         Item               Value     Threshold  Converged?
 Maximum Force            0.000064     0.000450     YES
 RMS     Force            0.000035     0.000300     YES
 Maximum Displacement     0.000280     0.001800     YES
 RMS     Displacement     0.000184     0.001200     YES
 Predicted change in Energy=-2.324918D-08
 Optimization completed.
    -- Stationary point found.
                           ----------------------------
                           !   Optimized Parameters   !
                           ! (Angstroms and Degrees)  !
 --------------------------                            --------------------------
 ! Name  Definition              Value          Derivative Info.                !
 --------------------------------------------------------------------------------
 ! R1    R(1,2)                  1.0134         -DE/DX =   -0.0001              !
 ! R2    R(1,3)                  1.0134         -DE/DX =    0.0                 !
 ! R3    R(1,4)                  1.0134         -DE/DX =    0.0                 !
 ! A1    A(2,1,3)              108.2964         -DE/DX =    0.0                 !
 ! A2    A(2,1,4)              108.2964         -DE/DX =    0.0                 !
 ! A3    A(3,1,4)              108.3233         -DE/DX =    0.0                 !
 ! D1    D(2,1,4,3)            117.2459         -DE/DX =    0.0                 !
 --------------------------------------------------------------------------------
 GradGradGradGradGradGradGradGradGradGradGradGradGradGradGradGradGradGrad

 Leave Link  103 at Wed Dec 29 11:03:45 2021, MaxMem=   131072000 cpu:               0.1 elap:               0.0
 (Enter /public/scc/g16/g16/l9999.exe)

 ----------------------------------------------------------------------

 Electric dipole moment (input orientation):
 (Debye = 10**-18 statcoulomb cm , SI units = C m)
                  (au)            (Debye)         (10**-30 SI)
   Tot        0.702859D+00      0.178649D+01      0.595908D+01
   x         -0.115713D-03     -0.294113D-03     -0.981056D-03
   y         -0.702859D+00     -0.178649D+01     -0.595908D+01
   z          0.000000D+00      0.000000D+00      0.000000D+00

 Dipole polarizability, Alpha (input orientation).
 (esu units = cm**3 , SI units = C**2 m**2 J**-1)
 Alpha(0;0):
               (au)            (10**-24 esu)      (10**-40 SI)
   iso        0.108787D+02      0.161206D+01      0.179365D+01
   aniso      0.123957D+01      0.183685D+00      0.204378D+00
   xx         0.104648D+02      0.155072D+01      0.172541D+01
   yx         0.112975D-02      0.167412D-03      0.186271D-03
   yy         0.117051D+02      0.173451D+01      0.192991D+01
   zx         0.000000D+00      0.000000D+00      0.000000D+00
   zy         0.000000D+00      0.000000D+00      0.000000D+00
   zz         0.104662D+02      0.155093D+01      0.172564D+01

 ----------------------------------------------------------------------

 Dipole orientation:
     7         -0.00003329          0.00000001         -0.20220069
     1          1.79229402         -0.00029507          0.47232544
     1         -0.89577487          1.55255751          0.47182316
     1         -0.89628603         -1.55226248          0.47182316

 Electric dipole moment (dipole orientation):
 (Debye = 10**-18 statcoulomb cm , SI units = C m)
                  (au)            (Debye)         (10**-30 SI)
   Tot        0.702859D+00      0.178649D+01      0.595908D+01
   x          0.000000D+00      0.000000D+00      0.000000D+00
   y          0.000000D+00      0.000000D+00      0.000000D+00
   z          0.702859D+00      0.178649D+01      0.595908D+01

 Dipole polarizability, Alpha (dipole orientation).
 (esu units = cm**3 , SI units = C**2 m**2 J**-1)
 Alpha(0;0):
               (au)            (10**-24 esu)      (10**-40 SI)
   iso        0.108787D+02      0.161206D+01      0.179365D+01
   aniso      0.123957D+01      0.183685D+00      0.204378D+00
   xx         0.104648D+02      0.155072D+01      0.172541D+01
   yx         0.000000D+00      0.000000D+00      0.000000D+00
   yy         0.104662D+02      0.155093D+01      0.172564D+01
   zx        -0.925563D-03     -0.137154D-03     -0.152605D-03
   zy         0.000000D+00      0.000000D+00      0.000000D+00
   zz         0.117051D+02      0.173451D+01      0.192991D+01

 ----------------------------------------------------------------------
 1\1\GINC-NODE27\Freq\RwB97XD\6-31++G(d,p)\H3N1\ROOT\29-Dec-2021\0\\#P 
 Geom=AllCheck Guess=TCheck SCRF=Check GenChk RwB97XD/6-31++G(d,p) Freq
 \\aaaaa\\0,1\N,0.,0.107,0.\H,0.9484,-0.2501,0.\H,-0.4742,-0.2496,0.821
 5\H,-0.4742,-0.2496,-0.8215\\Version=ES64L-G16RevA.03\State=1-A'\HF=-5
 6.5464989\RMSD=2.972e-10\RMSF=3.980e-05\ZeroPoint=0.0347814\Thermal=0.
 0376555\Dipole=-0.0001157,-0.7028587,0.\DipoleDeriv=-0.4374215,-0.0001
 328,0.,-0.0002235,-0.7474305,0.,0.,0.,-0.4374281,0.0924672,0.1126702,0
 .,0.1518011,0.2489914,0.,0.,0.,0.1988603,0.1724771,-0.0562687,0.045953
 ,-0.0757888,0.2492196,0.1314653,0.0460298,0.0975755,0.1192839,0.172477
 1,-0.0562687,-0.045953,-0.0757888,0.2492196,-0.1314653,-0.0460298,-0.0
 975755,0.1192839\Polar=10.4647974,0.0011298,11.7050712,0.,0.,10.466207
 7\Quadrupole=0.871569,-1.7441958,0.8726268,-0.0009902,0.,0.\PG=CS [SG(
 H1N1),X(H2)]\NImag=0\\0.68840464,-0.00014518,0.19980521,0.,0.,0.688437
 39,-0.39526818,0.11819100,0.,0.42553132,0.17273863,-0.06680683,0.,-0.1
 3860964,0.06564928,0.,0.,-0.06375988,0.,0.,0.06008559,-0.14656823,-0.0
 5902291,0.14360798,-0.01513157,-0.01706449,0.03357186,0.15139187,-0.08
 629672,-0.06649919,0.14942443,0.01020932,0.00057877,-0.01383050,0.0692
 1391,0.06536517,0.14359129,0.10218517,-0.31233875,-0.00420186,0.001925
 83,0.00183715,-0.15828463,-0.11985246,0.33408605,-0.14656823,-0.059022
 91,-0.14360798,-0.01513157,-0.01706449,-0.03357186,0.01030793,0.006873
 49,0.01889520,0.15139187,-0.08629672,-0.06649919,-0.14942443,0.0102093
 2,0.00057877,0.01383050,0.00687349,0.00055525,0.01574147,0.06921391,0.
 06536517,-0.14359129,-0.10218517,-0.31233875,0.00420186,-0.00192583,0.
 00183715,-0.01889520,-0.01574147,-0.02358444,0.15828463,0.11985246,0.3
 3408605\\-0.00008245,0.00006619,0.,0.00005291,-0.00004006,0.,0.0000147
 7,-0.00001307,0.00003639,0.00001477,-0.00001307,-0.00003639\\\@


 "A LITTLE BIT GOES A LONG WAY"
 R.S. MULLIKEN AS QUOTED BY K. RUEDENBERG
 Job cpu time:       0 days  0 hours  0 minutes 45.6 seconds.
 Elapsed time:       0 days  0 hours  0 minutes  7.1 seconds.
 File lengths (MBytes):  RWF=      6 Int=      0 D2E=      0 Chk=      2 Scr=      1
 Normal termination of Gaussian 16 at Wed Dec 29 11:03:45 2021.
