14
Properties=species:S:1:pos:R:3:forces:R:3 -456.860520525=T pm7:=T -0.305173156802=T energy=-12431.745179681018 free_energy=-12431.745179681018 pbc="F F F"
C       -1.57323138      -0.04297053       0.01515344       0.00044324       0.00011815       0.00014369
C       -0.70692335       1.14396178      -0.33797291       0.00063705       0.00035906       0.00003570
C        0.68847128       1.10453185       0.27266330       0.00042331      -0.00004292      -0.00040370
C        1.46321065      -0.10845257      -0.17986884       0.00018239       0.00020599      -0.00037324
O       -2.47401466      -0.46679373      -0.66385894       0.00004245      -0.00037025       0.00046240
O       -1.27012124      -0.55826630       1.22542925      -0.00067472      -0.00040345       0.00022221
O        1.06556798      -0.93102653      -0.97073105       0.00007387      -0.00025986       0.00017969
O        2.67890325      -0.18244298       0.39127609       0.00004196       0.00020581      -0.00005352
H       -0.66987503       1.19483617      -1.42889420       0.00009742       0.00034983       0.00008328
H       -1.24414044       2.03749973       0.00484559       0.00057752       0.00054573      -0.00036471
H        0.63414706       1.08728059       1.36637121      -0.00011914      -0.00044690      -0.00059677
H        1.25670752       1.99759532      -0.00992038      -0.00073542       0.00057934       0.00022092
H       -1.87843772      -1.30432953       1.35612623      -0.00046430      -0.00076262       0.00024082
H        3.08678803      -0.99264474       0.04281991      -0.00052608      -0.00007725       0.00020334
