10
Properties=species:S:1:pos:R:3:forces:R:3 -135.134438695=T PM7_SP:=T -0.00570159411397=T energy=-3676.855195497612 free_energy=-3676.855195497612 pbc="F F F"
N        0.00000014       0.56954371      -0.14546820      -0.00001025       0.00049338      -0.00032172
C        1.20528280      -0.22087849       0.02034684      -0.00020516       0.00014126      -0.00006042
C       -1.20528312      -0.22087849       0.02034612       0.00023213       0.00013713      -0.00005380
H        0.00000012       1.32888816       0.52720113      -0.00000194      -0.00032873      -0.00006714
H        1.25838679      -0.96678696      -0.78105441       0.00000881      -0.00000551       0.00009822
H        2.08711007       0.42136348      -0.06865411      -0.00009419      -0.00008157       0.00007541
H        1.26225289      -0.76203397       0.98275692       0.00021462      -0.00014067       0.00008146
H       -1.25838566      -0.96678782      -0.78105439      -0.00001023      -0.00000478       0.00009783
H       -1.26225400      -0.76203300       0.98275687      -0.00021615      -0.00013652       0.00007525
H       -2.08710989       0.42136337      -0.06865664       0.00008241      -0.00007403       0.00007495
