 Entering Gaussian System, Link 0=g16
 Input=DMA.gjf
 Output=DMA.log
 Initial command:
 /public/scc/g16/g16/l1.exe "/tmp/Gau-25405.inp" -scrdir="/tmp/"
 Entering Link 1 = /public/scc/g16/g16/l1.exe PID=     25406.
  
 Copyright (c) 1988,1990,1992,1993,1995,1998,2003,2009,2016,
            Gaussian, Inc.  All Rights Reserved.
  
 This is part of the Gaussian(R) 16 program.  It is based on
 the Gaussian(R) 09 system (copyright 2009, Gaussian, Inc.),
 the Gaussian(R) 03 system (copyright 2003, Gaussian, Inc.),
 the Gaussian(R) 98 system (copyright 1998, Gaussian, Inc.),
 the Gaussian(R) 94 system (copyright 1995, Gaussian, Inc.),
 the Gaussian 92(TM) system (copyright 1992, Gaussian, Inc.),
 the Gaussian 90(TM) system (copyright 1990, Gaussian, Inc.),
 the Gaussian 88(TM) system (copyright 1988, Gaussian, Inc.),
 the Gaussian 86(TM) system (copyright 1986, Carnegie Mellon
 University), and the Gaussian 82(TM) system (copyright 1983,
 Carnegie Mellon University). Gaussian is a federally registered
 trademark of Gaussian, Inc.
  
 This software contains proprietary and confidential information,
 including trade secrets, belonging to Gaussian, Inc.
  
 This software is provided under written license and may be
 used, copied, transmitted, or stored only in accord with that
 written license.
  
 The following legend is applicable only to US Government
 contracts under FAR:
  
                    RESTRICTED RIGHTS LEGEND
  
 Use, reproduction and disclosure by the US Government is
 subject to restrictions as set forth in subparagraphs (a)
 and (c) of the Commercial Computer Software - Restricted
 Rights clause in FAR 52.227-19.
  
 Gaussian, Inc.
 340 Quinnipiac St., Bldg. 40, Wallingford CT 06492
  
  
 ---------------------------------------------------------------
 Warning -- This program may not be used in any manner that
 competes with the business of Gaussian, Inc. or will provide
 assistance to any competitor of Gaussian, Inc.  The licensee
 of this program is prohibited from giving any competitor of
 Gaussian, Inc. access to this program.  By using this program,
 the user acknowledges that Gaussian, Inc. is engaged in the
 business of creating and licensing software in the field of
 computational chemistry and represents and warrants to the
 licensee that it is not a competitor of Gaussian, Inc. and that
 it will not use this program in any manner prohibited above.
 ---------------------------------------------------------------
  

 Cite this work as:
 Gaussian 16, Revision A.03,
 M. J. Frisch, G. W. Trucks, H. B. Schlegel, G. E. Scuseria, 
 M. A. Robb, J. R. Cheeseman, G. Scalmani, V. Barone, 
 G. A. Petersson, H. Nakatsuji, X. Li, M. Caricato, A. V. Marenich, 
 J. Bloino, B. G. Janesko, R. Gomperts, B. Mennucci, H. P. Hratchian, 
 J. V. Ortiz, A. F. Izmaylov, J. L. Sonnenberg, D. Williams-Young, 
 F. Ding, F. Lipparini, F. Egidi, J. Goings, B. Peng, A. Petrone, 
 T. Henderson, D. Ranasinghe, V. G. Zakrzewski, J. Gao, N. Rega, 
 G. Zheng, W. Liang, M. Hada, M. Ehara, K. Toyota, R. Fukuda, 
 J. Hasegawa, M. Ishida, T. Nakajima, Y. Honda, O. Kitao, H. Nakai, 
 T. Vreven, K. Throssell, J. A. Montgomery, Jr., J. E. Peralta, 
 F. Ogliaro, M. J. Bearpark, J. J. Heyd, E. N. Brothers, K. N. Kudin, 
 V. N. Staroverov, T. A. Keith, R. Kobayashi, J. Normand, 
 K. Raghavachari, A. P. Rendell, J. C. Burant, S. S. Iyengar, 
 J. Tomasi, M. Cossi, J. M. Millam, M. Klene, C. Adamo, R. Cammi, 
 J. W. Ochterski, R. L. Martin, K. Morokuma, O. Farkas, 
 J. B. Foresman, and D. J. Fox, Gaussian, Inc., Wallingford CT, 2016.
 
 ******************************************
 Gaussian 16:  ES64L-G16RevA.03 25-Dec-2016
                29-Dec-2021 
 ******************************************
 %chk=DMA.chk
 %nproc=8
 Will use up to    8 processors via shared memory.
 %mem=1000MB
 -------------------------------
 #p wB97XD/6-31++G(d,p) opt freq
 -------------------------------
 1/18=20,19=15,26=3,38=1/1,3;
 2/9=110,12=2,17=6,18=5,40=1/2;
 3/5=1,6=6,7=1111,11=2,25=1,30=1,71=1,74=-58/1,2,3;
 4//1;
 5/5=2,38=5/2;
 6/7=2,8=2,9=2,10=2,28=1/1;
 7//1,2,3,16;
 1/18=20,19=15,26=3/3(2);
 2/9=110/2;
 99//99;
 2/9=110/2;
 3/5=1,6=6,7=1111,11=2,25=1,30=1,71=1,74=-58/1,2,3;
 4/5=5,16=3,69=1/1;
 5/5=2,38=5/2;
 7//1,2,3,16;
 1/18=20,19=15,26=3/3(-5);
 2/9=110/2;
 6/7=2,8=2,9=2,10=2,19=2,28=1/1;
 99/9=1/99;
 Leave Link    1 at Wed Dec 29 11:00:22 2021, MaxMem=   131072000 cpu:               5.1 elap:               0.7
 (Enter /public/scc/g16/g16/l101.exe)
 -----
 aaaaa
 -----
 Symbolic Z-matrix:
 Charge =  0 Multiplicity = 1
 N                     0.        0.56391  -0.14859 
 C                     1.21545  -0.22252   0.02031 
 C                    -1.21545  -0.22252   0.02031 
 H                     0.        1.32911   0.51715 
 H                     1.28278  -0.96583  -0.78047 
 H                     2.08969   0.42794  -0.06116 
 H                     1.27538  -0.76522   0.9813 
 H                    -1.28278  -0.96583  -0.78046 
 H                    -1.27538  -0.76522   0.9813 
 H                    -2.08969   0.42794  -0.06117 
 
 ITRead=  0  0  0  0  0  0  0  0  0  0
 MicOpt= -1 -1 -1 -1 -1 -1 -1 -1 -1 -1
 NAtoms=     10 NQM=       10 NQMF=       0 NMMI=      0 NMMIF=      0
                NMic=       0 NMicF=      0.
                    Isotopes and Nuclear Properties:
 (Nuclear quadrupole moments (NQMom) in fm**2, nuclear magnetic moments (NMagM)
  in nuclear magnetons)

  Atom         1           2           3           4           5           6           7           8           9          10
 IAtWgt=          14          12          12           1           1           1           1           1           1           1
 AtmWgt=  14.0030740  12.0000000  12.0000000   1.0078250   1.0078250   1.0078250   1.0078250   1.0078250   1.0078250   1.0078250
 NucSpn=           2           0           0           1           1           1           1           1           1           1
 AtZEff=  -0.0000000  -0.0000000  -0.0000000  -0.0000000  -0.0000000  -0.0000000  -0.0000000  -0.0000000  -0.0000000  -0.0000000
 NQMom=    2.0440000   0.0000000   0.0000000   0.0000000   0.0000000   0.0000000   0.0000000   0.0000000   0.0000000   0.0000000
 NMagM=    0.4037610   0.0000000   0.0000000   2.7928460   2.7928460   2.7928460   2.7928460   2.7928460   2.7928460   2.7928460
 AtZNuc=   7.0000000   6.0000000   6.0000000   1.0000000   1.0000000   1.0000000   1.0000000   1.0000000   1.0000000   1.0000000
 Leave Link  101 at Wed Dec 29 11:00:25 2021, MaxMem=   131072000 cpu:              14.6 elap:               2.0
 (Enter /public/scc/g16/g16/l103.exe)

 GradGradGradGradGradGradGradGradGradGradGradGradGradGradGradGradGradGrad
 Berny optimization.
 Initialization pass.
                           ----------------------------
                           !    Initial Parameters    !
                           ! (Angstroms and Degrees)  !
 --------------------------                            --------------------------
 ! Name  Definition              Value          Derivative Info.                !
 --------------------------------------------------------------------------------
 ! R1    R(1,2)                  1.4575         estimate D2E/DX2                !
 ! R2    R(1,3)                  1.4575         estimate D2E/DX2                !
 ! R3    R(1,4)                  1.0143         estimate D2E/DX2                !
 ! R4    R(2,5)                  1.0947         estimate D2E/DX2                !
 ! R5    R(2,6)                  1.0927         estimate D2E/DX2                !
 ! R6    R(2,7)                  1.1053         estimate D2E/DX2                !
 ! R7    R(3,8)                  1.0947         estimate D2E/DX2                !
 ! R8    R(3,9)                  1.1053         estimate D2E/DX2                !
 ! R9    R(3,10)                 1.0927         estimate D2E/DX2                !
 ! A1    A(2,1,3)              113.0083         estimate D2E/DX2                !
 ! A2    A(2,1,4)              109.3301         estimate D2E/DX2                !
 ! A3    A(3,1,4)              109.3301         estimate D2E/DX2                !
 ! A4    A(1,2,5)              109.4453         estimate D2E/DX2                !
 ! A5    A(1,2,6)              109.7161         estimate D2E/DX2                !
 ! A6    A(1,2,7)              114.262          estimate D2E/DX2                !
 ! A7    A(5,2,6)              107.4849         estimate D2E/DX2                !
 ! A8    A(5,2,7)              107.4151         estimate D2E/DX2                !
 ! A9    A(6,2,7)              108.284          estimate D2E/DX2                !
 ! A10   A(1,3,8)              109.4455         estimate D2E/DX2                !
 ! A11   A(1,3,9)              114.262          estimate D2E/DX2                !
 ! A12   A(1,3,10)             109.7161         estimate D2E/DX2                !
 ! A13   A(8,3,9)              107.4147         estimate D2E/DX2                !
 ! A14   A(8,3,10)             107.4846         estimate D2E/DX2                !
 ! A15   A(9,3,10)             108.2845         estimate D2E/DX2                !
 ! D1    D(3,1,2,5)             65.4629         estimate D2E/DX2                !
 ! D2    D(3,1,2,6)           -176.8274         estimate D2E/DX2                !
 ! D3    D(3,1,2,7)            -55.0193         estimate D2E/DX2                !
 ! D4    D(4,1,2,5)           -172.5275         estimate D2E/DX2                !
 ! D5    D(4,1,2,6)            -54.8178         estimate D2E/DX2                !
 ! D6    D(4,1,2,7)             66.9904         estimate D2E/DX2                !
 ! D7    D(2,1,3,8)            -65.4626         estimate D2E/DX2                !
 ! D8    D(2,1,3,9)             55.0193         estimate D2E/DX2                !
 ! D9    D(2,1,3,10)           176.828          estimate D2E/DX2                !
 ! D10   D(4,1,3,8)            172.5278         estimate D2E/DX2                !
 ! D11   D(4,1,3,9)            -66.9904         estimate D2E/DX2                !
 ! D12   D(4,1,3,10)            54.8183         estimate D2E/DX2                !
 --------------------------------------------------------------------------------
 Trust Radius=3.00D-01 FncErr=1.00D-07 GrdErr=1.00D-06 EigMax=2.50D+02 EigMin=1.00D-04
 Number of steps in this run=     46 maximum allowed number of steps=    100.
 GradGradGradGradGradGradGradGradGradGradGradGradGradGradGradGradGradGrad

 Leave Link  103 at Wed Dec 29 11:00:25 2021, MaxMem=   131072000 cpu:               0.3 elap:               0.2
 (Enter /public/scc/g16/g16/l202.exe)
                          Input orientation:                          
 ---------------------------------------------------------------------
 Center     Atomic      Atomic             Coordinates (Angstroms)
 Number     Number       Type             X           Y           Z
 ---------------------------------------------------------------------
      1          7           0        0.000000    0.563910   -0.148590
      2          6           0        1.215450   -0.222520    0.020310
      3          6           0       -1.215450   -0.222520    0.020310
      4          1           0        0.000000    1.329110    0.517150
      5          1           0        1.282780   -0.965830   -0.780470
      6          1           0        2.089690    0.427940   -0.061160
      7          1           0        1.275380   -0.765220    0.981300
      8          1           0       -1.282780   -0.965830   -0.780460
      9          1           0       -1.275380   -0.765220    0.981300
     10          1           0       -2.089690    0.427940   -0.061170
 ---------------------------------------------------------------------
                    Distance matrix (angstroms):
                    1          2          3          4          5
     1  N    0.000000
     2  C    1.457504   0.000000
     3  C    1.457504   2.430900   0.000000
     4  H    1.014269   2.032664   2.032664   0.000000
     5  H    2.094016   1.094665   2.726703   2.931909   0.000000
     6  H    2.095933   1.092717   3.369523   2.348053   1.763833
     7  H    2.160979   1.105268   2.724382   2.495646   1.773170
     8  H    2.094013   2.726700   1.094658   2.931905   2.565560
     9  H    2.160979   2.724382   1.105268   2.495646   3.112597
    10  H    2.095933   3.369523   1.092718   2.348056   3.719347
                    6          7          8          9         10
     6  H    0.000000
     7  H    1.781419   0.000000
     8  H    3.719347   3.112591   0.000000
     9  H    3.719415   2.550760   1.773160   0.000000
    10  H    4.179380   3.719418   1.763824   1.781425   0.000000
 Stoichiometry    C2H7N
 Framework group  C1[X(C2H7N)]
 Deg. of freedom    24
 Full point group                 C1      NOp   1
 Largest Abelian subgroup         C1      NOp   1
 Largest concise Abelian subgroup C1      NOp   1
                         Standard orientation:                         
 ---------------------------------------------------------------------
 Center     Atomic      Atomic             Coordinates (Angstroms)
 Number     Number       Type             X           Y           Z
 ---------------------------------------------------------------------
      1          7           0        0.000000    0.563909   -0.148593
      2          6           0        1.215450   -0.222521    0.020307
      3          6           0       -1.215450   -0.222521    0.020307
      4          1           0        0.000000    1.329109    0.517147
      5          1           0        1.282780   -0.965831   -0.780473
      6          1           0        2.089690    0.427939   -0.061163
      7          1           0        1.275380   -0.765221    0.981297
      8          1           0       -1.282780   -0.965831   -0.780463
      9          1           0       -1.275380   -0.765221    0.981297
     10          1           0       -2.089690    0.427939   -0.061173
 ---------------------------------------------------------------------
 Rotational constants (GHZ):          34.6943839           9.2643139           8.1880507
 Leave Link  202 at Wed Dec 29 11:00:27 2021, MaxMem=   131072000 cpu:               2.9 elap:               0.9
 (Enter /public/scc/g16/g16/l301.exe)
 Standard basis: 6-31++G(d,p) (6D, 7F)
 Ernie: Thresh=  0.10000D-02 Tol=  0.10000D-05 Strict=F.
 There are    99 symmetry adapted cartesian basis functions of A   symmetry.
 There are    99 symmetry adapted basis functions of A   symmetry.
    99 basis functions,   152 primitive gaussians,    99 cartesian basis functions
    13 alpha electrons       13 beta electrons
       nuclear repulsion energy        83.9900080166 Hartrees.
 IExCor= 4639 DFT=T Ex+Corr=wB97XD ExCW=0 ScaHFX=  1.000000
 ScaDFX=  1.000000  1.000000  1.000000  1.000000 ScalE2=  1.000000  1.000000
 IRadAn=      5 IRanWt=     -1 IRanGd=            0 ICorTp=0 IEmpDi=121
 HFx  wShort=  0.000000 wLong=  0.200000 cFull=  0.222036 cShort=  0.000000 cLong=  0.777964
 DFx  wShort=  0.000000 wLong=  0.200000 cFull=  0.000000 cShort=  0.000000 cLong=  1.000000
 NAtoms=   10 NActive=   10 NUniq=   10 SFac= 1.00D+00 NAtFMM=   60 NAOKFM=F Big=F
 Integral buffers will be    131072 words long.
 Raffenetti 2 integral format.
 Two-electron integral symmetry is turned on.
 R6Disp:  Grimme-D2 Dispersion energy=       -0.0031412060 Hartrees.
 Nuclear repulsion after empirical dispersion term =       83.9868668106 Hartrees.
 Leave Link  301 at Wed Dec 29 11:00:30 2021, MaxMem=   131072000 cpu:               8.7 elap:               2.0
 (Enter /public/scc/g16/g16/l302.exe)
 NPDir=0 NMtPBC=     1 NCelOv=     1 NCel=       1 NClECP=     1 NCelD=      1
         NCelK=      1 NCelE2=     1 NClLst=     1 CellRange=     0.0.
 One-electron integrals computed using PRISM.
 One-electron integral symmetry used in STVInt
 NBasis=    99 RedAO= T EigKep=  6.91D-04  NBF=    99
 NBsUse=    99 1.00D-06 EigRej= -1.00D+00 NBFU=    99
 Precomputing XC quadrature grid using
 IXCGrd= 4 IRadAn=           5 IRanWt=          -1 IRanGd=           0 AccXCQ= 0.00D+00.
 Generated NRdTot=       0 NPtTot=           0 NUsed=           0 NTot=          32
 NSgBfM=    99    99    99    99    99 MxSgAt=    10 MxSgA2=    10.
 Leave Link  302 at Wed Dec 29 11:00:34 2021, MaxMem=   131072000 cpu:              26.2 elap:               3.4
 (Enter /public/scc/g16/g16/l303.exe)
 DipDrv:  MaxL=1.
 Leave Link  303 at Wed Dec 29 11:00:38 2021, MaxMem=   131072000 cpu:               4.8 elap:               2.6
 (Enter /public/scc/g16/g16/l401.exe)
 ExpMin= 3.60D-02 ExpMax= 4.17D+03 ExpMxC= 6.27D+02 IAcc=3 IRadAn=         5 AccDes= 0.00D+00
 Harris functional with IExCor= 4639 and IRadAn=       5 diagonalized for initial guess.
 HarFok:  IExCor= 4639 AccDes= 0.00D+00 IRadAn=         5 IDoV= 1 UseB2=F ITyADJ=14
 ICtDFT=  3500011 ScaDFX=  1.000000  1.000000  1.000000  1.000000
 FoFCou: FMM=F IPFlag=           0 FMFlag=      100000 FMFlg1=           0
         NFxFlg=           0 DoJE=T BraDBF=F KetDBF=T FulRan=T
         wScrn=  0.000000 ICntrl=       500 IOpCl=  0 I1Cent=   200000004 NGrid=           0
         NMat0=    1 NMatS0=      1 NMatT0=    0 NMatD0=    1 NMtDS0=    0 NMtDT0=    0
 Petite list used in FoFCou.
 Harris En= -128.708092931224    
 JPrj=0 DoOrth=F DoCkMO=F.
 Leave Link  401 at Wed Dec 29 11:00:39 2021, MaxMem=   131072000 cpu:               5.3 elap:               0.8
 (Enter /public/scc/g16/g16/l502.exe)
 Keep R1 ints in memory in canonical form, NReq=31879294.
 FoFCou: FMM=F IPFlag=           0 FMFlag=           0 FMFlg1=           0
         NFxFlg=           0 DoJE=F BraDBF=F KetDBF=F FulRan=T
         wScrn=  0.000000 ICntrl=       600 IOpCl=  0 I1Cent=           0 NGrid=           0
         NMat0=    1 NMatS0=   4950 NMatT0=    0 NMatD0=    1 NMtDS0=    0 NMtDT0=    0
 Symmetry not used in FoFCou.
 Two-electron integral symmetry not used.
 Closed shell SCF:
 Using DIIS extrapolation, IDIIS=  1040.
 NGot=   131072000 LenX=   106542938 LenY=   106532696
 Requested convergence on RMS density matrix=1.00D-08 within 128 cycles.
 Requested convergence on MAX density matrix=1.00D-06.
 Requested convergence on             energy=1.00D-06.
 No special actions if energy rises.

 Cycle   1  Pass 1  IDiag  1:
 E= -135.103020593995    
 DIIS: error= 7.44D-02 at cycle   1 NSaved=   1.
 NSaved= 1 IEnMin= 1 EnMin= -135.103020593995     IErMin= 1 ErrMin= 7.44D-02
 ErrMax= 7.44D-02  0.00D+00 EMaxC= 1.00D-01 BMatC= 1.19D-01 BMatP= 1.19D-01
 IDIUse=3 WtCom= 2.56D-01 WtEn= 7.44D-01
 Coeff-Com:  0.100D+01
 Coeff-En:   0.100D+01
 Coeff:      0.100D+01
 Gap=     0.365 Goal=   None    Shift=    0.000
 GapD=    0.365 DampG=1.000 DampE=0.500 DampFc=0.5000 IDamp=-1.
 Damping current iteration by 5.00D-01
 RMSDP=2.65D-03 MaxDP=4.75D-02              OVMax= 4.71D-02

 Cycle   2  Pass 1  IDiag  1:
 E= -135.118726902258     Delta-E=       -0.015706308263 Rises=F Damp=T
 DIIS: error= 3.86D-02 at cycle   2 NSaved=   2.
 NSaved= 2 IEnMin= 2 EnMin= -135.118726902258     IErMin= 2 ErrMin= 3.86D-02
 ErrMax= 3.86D-02  0.00D+00 EMaxC= 1.00D-01 BMatC= 2.68D-02 BMatP= 1.19D-01
 IDIUse=3 WtCom= 6.14D-01 WtEn= 3.86D-01
 Coeff-Com: -0.703D+00 0.170D+01
 Coeff-En:   0.000D+00 0.100D+01
 Coeff:     -0.431D+00 0.143D+01
 Gap=     0.335 Goal=   None    Shift=    0.000
 RMSDP=1.32D-03 MaxDP=2.58D-02 DE=-1.57D-02 OVMax= 2.74D-02

 Cycle   3  Pass 1  IDiag  1:
 E= -135.132749832008     Delta-E=       -0.014022929750 Rises=F Damp=F
 DIIS: error= 4.46D-03 at cycle   3 NSaved=   3.
 NSaved= 3 IEnMin= 3 EnMin= -135.132749832008     IErMin= 3 ErrMin= 4.46D-03
 ErrMax= 4.46D-03  0.00D+00 EMaxC= 1.00D-01 BMatC= 2.06D-03 BMatP= 2.68D-02
 IDIUse=3 WtCom= 9.55D-01 WtEn= 4.46D-02
 Coeff-Com: -0.292D+00 0.594D+00 0.698D+00
 Coeff-En:   0.000D+00 0.000D+00 0.100D+01
 Coeff:     -0.279D+00 0.567D+00 0.711D+00
 Gap=     0.350 Goal=   None    Shift=    0.000
 RMSDP=5.00D-04 MaxDP=1.14D-02 DE=-1.40D-02 OVMax= 1.30D-02

 Cycle   4  Pass 1  IDiag  1:
 E= -135.134381102884     Delta-E=       -0.001631270876 Rises=F Damp=F
 DIIS: error= 6.63D-04 at cycle   4 NSaved=   4.
 NSaved= 4 IEnMin= 4 EnMin= -135.134381102884     IErMin= 4 ErrMin= 6.63D-04
 ErrMax= 6.63D-04  0.00D+00 EMaxC= 1.00D-01 BMatC= 6.27D-05 BMatP= 2.06D-03
 IDIUse=3 WtCom= 9.93D-01 WtEn= 6.63D-03
 Coeff-Com: -0.895D-01 0.183D+00 0.278D+00 0.628D+00
 Coeff-En:   0.000D+00 0.000D+00 0.000D+00 0.100D+01
 Coeff:     -0.889D-01 0.182D+00 0.276D+00 0.630D+00
 Gap=     0.346 Goal=   None    Shift=    0.000
 RMSDP=8.79D-05 MaxDP=1.84D-03 DE=-1.63D-03 OVMax= 1.85D-03

 Cycle   5  Pass 1  IDiag  1:
 E= -135.134435716599     Delta-E=       -0.000054613714 Rises=F Damp=F
 DIIS: error= 9.80D-05 at cycle   5 NSaved=   5.
 NSaved= 5 IEnMin= 5 EnMin= -135.134435716599     IErMin= 5 ErrMin= 9.80D-05
 ErrMax= 9.80D-05  0.00D+00 EMaxC= 1.00D-01 BMatC= 1.88D-06 BMatP= 6.27D-05
 IDIUse=1 WtCom= 1.00D+00 WtEn= 0.00D+00
 Coeff-Com:  0.153D-01-0.321D-01-0.174D-01 0.958D-01 0.938D+00
 Coeff:      0.153D-01-0.321D-01-0.174D-01 0.958D-01 0.938D+00
 Gap=     0.346 Goal=   None    Shift=    0.000
 RMSDP=4.02D-05 MaxDP=4.58D-04 DE=-5.46D-05 OVMax= 8.11D-04

 Cycle   6  Pass 1  IDiag  1:
 E= -135.134438491537     Delta-E=       -0.000002774939 Rises=F Damp=F
 DIIS: error= 2.32D-05 at cycle   6 NSaved=   6.
 NSaved= 6 IEnMin= 6 EnMin= -135.134438491537     IErMin= 6 ErrMin= 2.32D-05
 ErrMax= 2.32D-05  0.00D+00 EMaxC= 1.00D-01 BMatC= 1.09D-07 BMatP= 1.88D-06
 IDIUse=1 WtCom= 1.00D+00 WtEn= 0.00D+00
 Coeff-Com:  0.101D-01-0.208D-01-0.236D-01-0.321D-01 0.171D+00 0.895D+00
 Coeff:      0.101D-01-0.208D-01-0.236D-01-0.321D-01 0.171D+00 0.895D+00
 Gap=     0.346 Goal=   None    Shift=    0.000
 RMSDP=1.18D-05 MaxDP=1.72D-04 DE=-2.77D-06 OVMax= 2.46D-04

 Cycle   7  Pass 1  IDiag  1:
 E= -135.134438683653     Delta-E=       -0.000000192116 Rises=F Damp=F
 DIIS: error= 4.30D-06 at cycle   7 NSaved=   7.
 NSaved= 7 IEnMin= 7 EnMin= -135.134438683653     IErMin= 7 ErrMin= 4.30D-06
 ErrMax= 4.30D-06  0.00D+00 EMaxC= 1.00D-01 BMatC= 2.11D-09 BMatP= 1.09D-07
 IDIUse=1 WtCom= 1.00D+00 WtEn= 0.00D+00
 Coeff-Com: -0.200D-02 0.414D-02 0.426D-02 0.127D-02-0.558D-01-0.115D+00
 Coeff-Com:  0.116D+01
 Coeff:     -0.200D-02 0.414D-02 0.426D-02 0.127D-02-0.558D-01-0.115D+00
 Coeff:      0.116D+01
 Gap=     0.346 Goal=   None    Shift=    0.000
 RMSDP=2.66D-06 MaxDP=3.56D-05 DE=-1.92D-07 OVMax= 9.77D-05

 Cycle   8  Pass 1  IDiag  1:
 E= -135.134438693797     Delta-E=       -0.000000010144 Rises=F Damp=F
 DIIS: error= 1.28D-06 at cycle   8 NSaved=   8.
 NSaved= 8 IEnMin= 8 EnMin= -135.134438693797     IErMin= 8 ErrMin= 1.28D-06
 ErrMax= 1.28D-06  0.00D+00 EMaxC= 1.00D-01 BMatC= 1.41D-10 BMatP= 2.11D-09
 IDIUse=1 WtCom= 1.00D+00 WtEn= 0.00D+00
 Coeff-Com: -0.526D-03 0.107D-02 0.121D-02 0.155D-02-0.759D-02-0.448D-01
 Coeff-Com: -0.430D-01 0.109D+01
 Coeff:     -0.526D-03 0.107D-02 0.121D-02 0.155D-02-0.759D-02-0.448D-01
 Coeff:     -0.430D-01 0.109D+01
 Gap=     0.346 Goal=   None    Shift=    0.000
 RMSDP=6.39D-07 MaxDP=8.97D-06 DE=-1.01D-08 OVMax= 3.04D-05

 Cycle   9  Pass 1  IDiag  1:
 E= -135.134438694606     Delta-E=       -0.000000000809 Rises=F Damp=F
 DIIS: error= 4.15D-07 at cycle   9 NSaved=   9.
 NSaved= 9 IEnMin= 9 EnMin= -135.134438694606     IErMin= 9 ErrMin= 4.15D-07
 ErrMax= 4.15D-07  0.00D+00 EMaxC= 1.00D-01 BMatC= 9.86D-12 BMatP= 1.41D-10
 IDIUse=1 WtCom= 1.00D+00 WtEn= 0.00D+00
 Coeff-Com:  0.160D-03-0.333D-03-0.348D-03-0.248D-03 0.397D-02 0.110D-01
 Coeff-Com: -0.726D-01-0.115D+00 0.117D+01
 Coeff:      0.160D-03-0.333D-03-0.348D-03-0.248D-03 0.397D-02 0.110D-01
 Coeff:     -0.726D-01-0.115D+00 0.117D+01
 Gap=     0.346 Goal=   None    Shift=    0.000
 RMSDP=1.98D-07 MaxDP=2.93D-06 DE=-8.09D-10 OVMax= 1.01D-05

 Cycle  10  Pass 1  IDiag  1:
 E= -135.134438694672     Delta-E=       -0.000000000066 Rises=F Damp=F
 DIIS: error= 8.06D-08 at cycle  10 NSaved=  10.
 NSaved=10 IEnMin=10 EnMin= -135.134438694672     IErMin=10 ErrMin= 8.06D-08
 ErrMax= 8.06D-08  0.00D+00 EMaxC= 1.00D-01 BMatC= 6.18D-13 BMatP= 9.86D-12
 IDIUse=1 WtCom= 1.00D+00 WtEn= 0.00D+00
 Coeff-Com:  0.189D-04-0.381D-04-0.440D-04-0.704D-04 0.170D-03 0.219D-02
 Coeff-Com:  0.574D-02-0.705D-01 0.224D-01 0.104D+01
 Coeff:      0.189D-04-0.381D-04-0.440D-04-0.704D-04 0.170D-03 0.219D-02
 Coeff:      0.574D-02-0.705D-01 0.224D-01 0.104D+01
 Gap=     0.346 Goal=   None    Shift=    0.000
 RMSDP=4.83D-08 MaxDP=8.27D-07 DE=-6.59D-11 OVMax= 1.85D-06

 Cycle  11  Pass 1  IDiag  1:
 E= -135.134438694676     Delta-E=       -0.000000000004 Rises=F Damp=F
 DIIS: error= 2.20D-08 at cycle  11 NSaved=  11.
 NSaved=11 IEnMin=11 EnMin= -135.134438694676     IErMin=11 ErrMin= 2.20D-08
 ErrMax= 2.20D-08  0.00D+00 EMaxC= 1.00D-01 BMatC= 4.04D-14 BMatP= 6.18D-13
 IDIUse=1 WtCom= 1.00D+00 WtEn= 0.00D+00
 Coeff-Com: -0.129D-04 0.269D-04 0.271D-04 0.211D-04-0.332D-03-0.819D-03
 Coeff-Com:  0.571D-02 0.725D-02-0.842D-01-0.588D-02 0.108D+01
 Coeff:     -0.129D-04 0.269D-04 0.271D-04 0.211D-04-0.332D-03-0.819D-03
 Coeff:      0.571D-02 0.725D-02-0.842D-01-0.588D-02 0.108D+01
 Gap=     0.346 Goal=   None    Shift=    0.000
 RMSDP=1.52D-08 MaxDP=2.46D-07 DE=-3.92D-12 OVMax= 4.53D-07

 Cycle  12  Pass 1  IDiag  1:
 E= -135.134438694675     Delta-E=        0.000000000001 Rises=F Damp=F
 DIIS: error= 4.58D-09 at cycle  12 NSaved=  12.
 NSaved=12 IEnMin=11 EnMin= -135.134438694676     IErMin=12 ErrMin= 4.58D-09
 ErrMax= 4.58D-09  0.00D+00 EMaxC= 1.00D-01 BMatC= 1.31D-15 BMatP= 4.04D-14
 IDIUse=1 WtCom= 1.00D+00 WtEn= 0.00D+00
 Coeff-Com:  0.735D-06-0.160D-05-0.162D-05-0.249D-06 0.281D-04 0.260D-04
 Coeff-Com: -0.880D-03 0.226D-02 0.743D-02-0.468D-01-0.110D+00 0.115D+01
 Coeff:      0.735D-06-0.160D-05-0.162D-05-0.249D-06 0.281D-04 0.260D-04
 Coeff:     -0.880D-03 0.226D-02 0.743D-02-0.468D-01-0.110D+00 0.115D+01
 Gap=     0.346 Goal=   None    Shift=    0.000
 RMSDP=3.14D-09 MaxDP=4.14D-08 DE= 9.95D-13 OVMax= 8.43D-08

 SCF Done:  E(RwB97XD) =  -135.134438695     A.U. after   12 cycles
            NFock= 12  Conv=0.31D-08     -V/T= 2.0101
 KE= 1.337813256864D+02 PE=-4.809475627857D+02 EE= 1.280449315940D+02
 Leave Link  502 at Wed Dec 29 11:00:52 2021, MaxMem=   131072000 cpu:              87.6 elap:              12.6
 (Enter /public/scc/g16/g16/l601.exe)
 Copying SCF densities to generalized density rwf, IOpCl= 0 IROHF=0.

 **********************************************************************

            Population analysis using the SCF density.

 **********************************************************************

 Orbital symmetries:
       Occupied  (A) (A) (A) (A) (A) (A) (A) (A) (A) (A) (A) (A)
                 (A)
       Virtual   (A) (A) (A) (A) (A) (A) (A) (A) (A) (A) (A) (A)
                 (A) (A) (A) (A) (A) (A) (A) (A) (A) (A) (A) (A)
                 (A) (A) (A) (A) (A) (A) (A) (A) (A) (A) (A) (A)
                 (A) (A) (A) (A) (A) (A) (A) (A) (A) (A) (A) (A)
                 (A) (A) (A) (A) (A) (A) (A) (A) (A) (A) (A) (A)
                 (A) (A) (A) (A) (A) (A) (A) (A) (A) (A) (A) (A)
                 (A) (A) (A) (A) (A) (A) (A) (A) (A) (A) (A) (A)
                 (A) (A)
 The electronic state is 1-A.
 Alpha  occ. eigenvalues --  -14.44120 -10.31261 -10.31261  -0.99948  -0.79824
 Alpha  occ. eigenvalues --   -0.72284  -0.57662  -0.52888  -0.52095  -0.47038
 Alpha  occ. eigenvalues --   -0.44719  -0.44455  -0.30420
 Alpha virt. eigenvalues --    0.04214   0.06000   0.06460   0.07631   0.09354
 Alpha virt. eigenvalues --    0.09381   0.10609   0.12921   0.15734   0.16056
 Alpha virt. eigenvalues --    0.17128   0.19227   0.19248   0.20257   0.22383
 Alpha virt. eigenvalues --    0.23004   0.25698   0.28346   0.29128   0.29433
 Alpha virt. eigenvalues --    0.30886   0.31914   0.33699   0.35160   0.36084
 Alpha virt. eigenvalues --    0.41746   0.43754   0.44229   0.75332   0.79695
 Alpha virt. eigenvalues --    0.80542   0.81506   0.81655   0.89046   0.94230
 Alpha virt. eigenvalues --    0.97781   1.02554   1.06067   1.07748   1.10005
 Alpha virt. eigenvalues --    1.12163   1.17976   1.19663   1.21206   1.28933
 Alpha virt. eigenvalues --    1.40390   1.41887   1.48985   1.52601   1.67218
 Alpha virt. eigenvalues --    1.82527   1.88532   2.00256   2.08901   2.09317
 Alpha virt. eigenvalues --    2.13370   2.13467   2.17588   2.22413   2.22586
 Alpha virt. eigenvalues --    2.23715   2.28594   2.43657   2.46317   2.49089
 Alpha virt. eigenvalues --    2.53384   2.68627   2.70986   2.78858   2.79792
 Alpha virt. eigenvalues --    2.83276   2.86345   2.97777   2.98703   3.05082
 Alpha virt. eigenvalues --    3.07489   3.31259   3.34208   3.44351   3.52982
 Alpha virt. eigenvalues --    3.56553   3.58567   3.65586   4.28544   4.60345
 Alpha virt. eigenvalues --    4.63270
          Condensed to atoms (all electrons):
               1          2          3          4          5          6
     1  N    6.983872   0.198319   0.198319   0.365020  -0.041866  -0.042357
     2  C    0.198319   5.074349  -0.062695  -0.062364   0.406070   0.408145
     3  C    0.198319  -0.062695   5.074349  -0.062365  -0.013469   0.005480
     4  H    0.365020  -0.062364  -0.062365   0.473760   0.009701  -0.005467
     5  H   -0.041866   0.406070  -0.013469   0.009701   0.550733  -0.016311
     6  H   -0.042357   0.408145   0.005480  -0.005467  -0.016311   0.534065
     7  H   -0.104330   0.433913   0.009813  -0.008956  -0.052489  -0.037210
     8  H   -0.041866  -0.013469   0.406069   0.009701   0.008322   0.000095
     9  H   -0.104329   0.009813   0.433914  -0.008955  -0.004744   0.000789
    10  H   -0.042357   0.005480   0.408145  -0.005467   0.000095  -0.000240
               7          8          9         10
     1  N   -0.104330  -0.041866  -0.104329  -0.042357
     2  C    0.433913  -0.013469   0.009813   0.005480
     3  C    0.009813   0.406069   0.433914   0.408145
     4  H   -0.008956   0.009701  -0.008955  -0.005467
     5  H   -0.052489   0.008322  -0.004744   0.000095
     6  H   -0.037210   0.000095   0.000789  -0.000240
     7  H    0.627575  -0.004744   0.008533   0.000789
     8  H   -0.004744   0.550732  -0.052489  -0.016311
     9  H    0.008533  -0.052489   0.627575  -0.037210
    10  H    0.000789  -0.016311  -0.037210   0.534065
 Mulliken charges:
               1
     1  N   -0.368424
     2  C   -0.397561
     3  C   -0.397561
     4  H    0.295393
     5  H    0.153959
     6  H    0.153012
     7  H    0.127105
     8  H    0.153960
     9  H    0.127105
    10  H    0.153012
 Sum of Mulliken charges =  -0.00000
 Mulliken charges with hydrogens summed into heavy atoms:
               1
     1  N   -0.073031
     2  C    0.036515
     3  C    0.036516
 Electronic spatial extent (au):  <R**2>=            205.4718
 Charge=             -0.0000 electrons
 Dipole moment (field-independent basis, Debye):
    X=             -0.0000    Y=             -0.2734    Z=              1.1213  Tot=              1.1542
 Quadrupole moment (field-independent basis, Debye-Ang):
   XX=            -19.5737   YY=            -20.6898   ZZ=            -22.0051
   XY=              0.0000   XZ=              0.0000   YZ=              2.2993
 Traceless Quadrupole moment (field-independent basis, Debye-Ang):
   XX=              1.1825   YY=              0.0664   ZZ=             -1.2489
   XY=              0.0000   XZ=              0.0000   YZ=              2.2993
 Octapole moment (field-independent basis, Debye-Ang**2):
  XXX=             -0.0000  YYY=              2.9140  ZZZ=              1.1447  XYY=             -0.0000
  XXY=              1.9073  XXZ=             -0.8207  XZZ=              0.0000  YZZ=             -0.9918
  YYZ=              1.8924  XYZ=              0.0000
 Hexadecapole moment (field-independent basis, Debye-Ang**3):
 XXXX=           -180.5727 YYYY=            -58.4423 ZZZZ=            -41.4524 XXXY=              0.0001
 XXXZ=              0.0001 YYYX=              0.0001 YYYZ=              5.6822 ZZZX=              0.0000
 ZZZY=              3.1441 XXYY=            -39.7195 XXZZ=            -38.8123 YYZZ=            -16.5267
 XXYZ=              0.7991 YYXZ=              0.0000 ZZXY=             -0.0000
 N-N= 8.398686681062D+01 E-N=-4.809475627612D+02  KE= 1.337813256864D+02
 No NMR shielding tensors so no spin-rotation constants.
 Leave Link  601 at Wed Dec 29 11:00:53 2021, MaxMem=   131072000 cpu:               1.6 elap:               0.4
 (Enter /public/scc/g16/g16/l701.exe)
 ... and contract with generalized density number  0.
 Compute integral first derivatives.
 R6Disp: Adding Grimme-D2 dispersion energy 1st derivatives to the gradient.
 Leave Link  701 at Wed Dec 29 11:00:54 2021, MaxMem=   131072000 cpu:               1.3 elap:               0.3
 (Enter /public/scc/g16/g16/l702.exe)
 L702 exits ... SP integral derivatives will be done elsewhere.
 Leave Link  702 at Wed Dec 29 11:00:55 2021, MaxMem=   131072000 cpu:               0.2 elap:               0.1
 (Enter /public/scc/g16/g16/l703.exe)
 Integral derivatives from FoFJK, PRISM(SPDF).
 Compute integral first derivatives, UseDBF=F ICtDFT=           0.
 Calling FoFJK, ICntrl=      2127 FMM=F ISym2X=0 I1Cent= 0 IOpClX= 0 NMat=1 NMatS=1 NMatT=0.
 FoFJK:  IHMeth= 1 ICntrl=    2127 DoSepK=T KAlg= 0 I1Cent=           0 FoldK=F
 IRaf=         1 NMat=       1 IRICut=       1 DoRegI=T DoRafI=F ISym2E= 0 IDoP0=0 IntGTp=1.
 FoFCou: FMM=F IPFlag=           0 FMFlag=      100000 FMFlg1=         800
         NFxFlg=           0 DoJE=F BraDBF=F KetDBF=F FulRan=T
         wScrn=  0.000000 ICntrl=      2527 IOpCl=  0 I1Cent=           0 NGrid=           0
         NMat0=    1 NMatS0=      1 NMatT0=    0 NMatD0=    1 NMtDS0=    0 NMtDT0=    0
 Symmetry not used in FoFCou.
 Leave Link  703 at Wed Dec 29 11:00:57 2021, MaxMem=   131072000 cpu:              13.5 elap:               1.7
 (Enter /public/scc/g16/g16/l716.exe)
 Dipole        =-2.86407375D-07-1.07572328D-01 4.41168147D-01
 ***** Axes restored to original set *****
 -------------------------------------------------------------------
 Center     Atomic                   Forces (Hartrees/Bohr)
 Number     Number              X              Y              Z
 -------------------------------------------------------------------
      1        7           0.000000085   -0.002981574    0.002705419
      2        6          -0.001331448    0.000403193   -0.000369346
      3        6           0.001331267    0.000405987   -0.000366567
      4        1          -0.000000029    0.000194707   -0.000697479
      5        1          -0.000538554   -0.000122012   -0.000598221
      6        1           0.000080090    0.000554591   -0.000081905
      7        1          -0.000987349    0.000557587    0.000045446
      8        1           0.000538790   -0.000125013   -0.000602106
      9        1           0.000986924    0.000558293    0.000045810
     10        1          -0.000079776    0.000554242   -0.000081050
 -------------------------------------------------------------------
 Cartesian Forces:  Max     0.002981574 RMS     0.000920586
 Leave Link  716 at Wed Dec 29 11:00:57 2021, MaxMem=   131072000 cpu:               0.3 elap:               0.1
 (Enter /public/scc/g16/g16/l103.exe)

 GradGradGradGradGradGradGradGradGradGradGradGradGradGradGradGradGradGrad
 Berny optimization.
 FormGI is forming the generalized inverse of G from B-inverse, IUseBI=4.
 Internal  Forces:  Max     0.003184178 RMS     0.000950182
 Search for a local minimum.
 Step number   1 out of a maximum of   46
 All quantities printed in internal units (Hartrees-Bohrs-Radians)
 RMS Force = .95018D-03 SwitMx=.10000D-02 MixMth= 2
 Mixed Optimization -- En-DIIS/RFO-DIIS
 Second derivative matrix not updated -- first step.
 ITU=  0
     Eigenvalues ---    0.00931   0.00931   0.02856   0.06994   0.06994
     Eigenvalues ---    0.07584   0.07584   0.11166   0.16000   0.16000
     Eigenvalues ---    0.16000   0.16000   0.16000   0.16000   0.23387
     Eigenvalues ---    0.33106   0.33106   0.34279   0.34280   0.34500
     Eigenvalues ---    0.34500   0.37279   0.37279   0.45265
 RFO step:  Lambda=-1.32487250D-04 EMin= 9.31112041D-03
 Linear search not attempted -- first point.
 Iteration  1 RMS(Cart)=  0.00967138 RMS(Int)=  0.00003374
 Iteration  2 RMS(Cart)=  0.00003468 RMS(Int)=  0.00000850
 Iteration  3 RMS(Cart)=  0.00000000 RMS(Int)=  0.00000850
 ITry= 1 IFail=0 DXMaxC= 2.66D-02 DCOld= 1.00D+10 DXMaxT= 3.00D-01 DXLimC= 3.00D+00 Rises=F
 Variable       Old X    -DE/DX   Delta X   Delta X   Delta X     New X
                                 (Linear)    (Quad)   (Total)
    R1        2.75428  -0.00318   0.00000  -0.00854  -0.00854   2.74574
    R2        2.75428  -0.00318   0.00000  -0.00854  -0.00854   2.74574
    R3        1.91669  -0.00031   0.00000  -0.00069  -0.00069   1.91600
    R4        2.06862   0.00049   0.00000   0.00142   0.00142   2.07004
    R5        2.06494   0.00040   0.00000   0.00116   0.00116   2.06610
    R6        2.08865  -0.00029   0.00000  -0.00087  -0.00087   2.08778
    R7        2.06860   0.00049   0.00000   0.00144   0.00144   2.07004
    R8        2.08865  -0.00029   0.00000  -0.00087  -0.00087   2.08778
    R9        2.06494   0.00040   0.00000   0.00116   0.00116   2.06610
    A1        1.97237  -0.00144   0.00000  -0.00450  -0.00450   1.96787
    A2        1.90817   0.00061   0.00000   0.00673   0.00672   1.91489
    A3        1.90817   0.00061   0.00000   0.00673   0.00672   1.91489
    A4        1.91018  -0.00057   0.00000  -0.00351  -0.00353   1.90665
    A5        1.91491  -0.00012   0.00000  -0.00030  -0.00031   1.91460
    A6        1.99425  -0.00139   0.00000  -0.00923  -0.00925   1.98500
    A7        1.87597   0.00053   0.00000   0.00441   0.00441   1.88038
    A8        1.87475   0.00091   0.00000   0.00486   0.00484   1.87959
    A9        1.88991   0.00078   0.00000   0.00471   0.00470   1.89462
   A10        1.91018  -0.00057   0.00000  -0.00352  -0.00353   1.90665
   A11        1.99425  -0.00139   0.00000  -0.00923  -0.00925   1.98500
   A12        1.91491  -0.00012   0.00000  -0.00030  -0.00031   1.91460
   A13        1.87474   0.00091   0.00000   0.00487   0.00485   1.87959
   A14        1.87596   0.00053   0.00000   0.00442   0.00442   1.88038
   A15        1.88992   0.00078   0.00000   0.00470   0.00470   1.89462
    D1        1.14254  -0.00027   0.00000  -0.00765  -0.00764   1.13490
    D2       -3.08622  -0.00004   0.00000  -0.00454  -0.00455  -3.09077
    D3       -0.96027  -0.00008   0.00000  -0.00511  -0.00512  -0.96539
    D4       -3.01117  -0.00002   0.00000   0.00276   0.00277  -3.00841
    D5       -0.95675   0.00022   0.00000   0.00586   0.00586  -0.95089
    D6        1.16920   0.00017   0.00000   0.00529   0.00529   1.17449
    D7       -1.14254   0.00027   0.00000   0.00765   0.00764  -1.13490
    D8        0.96027   0.00009   0.00000   0.00512   0.00512   0.96539
    D9        3.08623   0.00004   0.00000   0.00454   0.00454   3.09077
   D10        3.01118   0.00002   0.00000  -0.00276  -0.00277   3.00841
   D11       -1.16920  -0.00017   0.00000  -0.00529  -0.00528  -1.17449
   D12        0.95676  -0.00022   0.00000  -0.00587  -0.00587   0.95089
         Item               Value     Threshold  Converged?
 Maximum Force            0.003184     0.000450     NO 
 RMS     Force            0.000950     0.000300     NO 
 Maximum Displacement     0.026629     0.001800     NO 
 RMS     Displacement     0.009671     0.001200     NO 
 Predicted change in Energy=-6.629612D-05
 Lowest energy point so far.  Saving SCF results.
 GradGradGradGradGradGradGradGradGradGradGradGradGradGradGradGradGradGrad

 Leave Link  103 at Wed Dec 29 11:00:58 2021, MaxMem=   131072000 cpu:               2.5 elap:               0.4
 (Enter /public/scc/g16/g16/l202.exe)
                          Input orientation:                          
 ---------------------------------------------------------------------
 Center     Atomic      Atomic             Coordinates (Angstroms)
 Number     Number       Type             X           Y           Z
 ---------------------------------------------------------------------
      1          7           0       -0.000000    0.564375   -0.144044
      2          6           0        1.209875   -0.223305    0.020061
      3          6           0       -1.209875   -0.223305    0.020061
      4          1           0       -0.000000    1.333054    0.517118
      5          1           0        1.268690   -0.966196   -0.782804
      6          1           0        2.086010    0.425597   -0.061713
      7          1           0        1.261395   -0.763930    0.982179
      8          1           0       -1.268689   -0.966199   -0.782802
      9          1           0       -1.261397   -0.763927    0.982180
     10          1           0       -2.086009    0.425597   -0.061717
 ---------------------------------------------------------------------
                    Distance matrix (angstroms):
                    1          2          3          4          5
     1  N    0.000000
     2  C    1.452986   0.000000
     3  C    1.452986   2.419750   0.000000
     4  H    1.013905   2.033007   2.033007   0.000000
     5  H    2.088118   1.095417   2.709200   2.930175   0.000000
     6  H    2.092241   1.093331   3.360151   2.347331   1.767787
     7  H    2.150323   1.104808   2.706496   2.490932   1.776550
     8  H    2.088118   2.709199   1.095417   2.930175   2.537379
     9  H    2.150323   2.706497   1.104808   2.490931   3.091508
    10  H    2.092241   3.360151   1.093331   2.347331   3.702845
                    6          7          8          9         10
     6  H    0.000000
     7  H    1.784565   0.000000
     8  H    3.702846   3.091503   0.000000
     9  H    3.702676   2.522791   1.776550   0.000000
    10  H    4.172019   3.702676   1.767787   1.784566   0.000000
 Stoichiometry    C2H7N
 Framework group  C1[X(C2H7N)]
 Deg. of freedom    24
 Full point group                 C1      NOp   1
 RotChk:  IX=0 Diff= 8.33D-03
 Largest Abelian subgroup         C1      NOp   1
 Largest concise Abelian subgroup C1      NOp   1
                         Standard orientation:                         
 ---------------------------------------------------------------------
 Center     Atomic      Atomic             Coordinates (Angstroms)
 Number     Number       Type             X           Y           Z
 ---------------------------------------------------------------------
      1          7           0       -0.000000    0.563705   -0.148324
      2          6           0        1.209875   -0.222995    0.020419
      3          6           0       -1.209875   -0.222995    0.020419
      4          1           0       -0.000000    1.336267    0.508297
      5          1           0        1.268690   -0.970603   -0.778055
      6          1           0        2.086010    0.425414   -0.065177
      7          1           0        1.261395   -0.757941    0.985705
      8          1           0       -1.268689   -0.970606   -0.778053
      9          1           0       -1.261396   -0.757938    0.985707
     10          1           0       -2.086009    0.425414   -0.065181
 ---------------------------------------------------------------------
 Rotational constants (GHZ):          34.6604199           9.3497338           8.2530719
 Leave Link  202 at Wed Dec 29 11:00:59 2021, MaxMem=   131072000 cpu:               0.3 elap:               0.1
 (Enter /public/scc/g16/g16/l301.exe)
 Standard basis: 6-31++G(d,p) (6D, 7F)
 Ernie: Thresh=  0.10000D-02 Tol=  0.10000D-05 Strict=F.
 There are    99 symmetry adapted cartesian basis functions of A   symmetry.
 There are    99 symmetry adapted basis functions of A   symmetry.
    99 basis functions,   152 primitive gaussians,    99 cartesian basis functions
    13 alpha electrons       13 beta electrons
       nuclear repulsion energy        84.1931092110 Hartrees.
 IExCor= 4639 DFT=T Ex+Corr=wB97XD ExCW=0 ScaHFX=  1.000000
 ScaDFX=  1.000000  1.000000  1.000000  1.000000 ScalE2=  1.000000  1.000000
 IRadAn=      5 IRanWt=     -1 IRanGd=            0 ICorTp=0 IEmpDi=121
 HFx  wShort=  0.000000 wLong=  0.200000 cFull=  0.222036 cShort=  0.000000 cLong=  0.777964
 DFx  wShort=  0.000000 wLong=  0.200000 cFull=  0.000000 cShort=  0.000000 cLong=  1.000000
 NAtoms=   10 NActive=   10 NUniq=   10 SFac= 1.00D+00 NAtFMM=   60 NAOKFM=F Big=F
 Integral buffers will be    131072 words long.
 Raffenetti 2 integral format.
 Two-electron integral symmetry is turned on.
 R6Disp:  Grimme-D2 Dispersion energy=       -0.0031508002 Hartrees.
 Nuclear repulsion after empirical dispersion term =       84.1899584108 Hartrees.
 Leave Link  301 at Wed Dec 29 11:01:00 2021, MaxMem=   131072000 cpu:               1.7 elap:               0.3
 (Enter /public/scc/g16/g16/l302.exe)
 NPDir=0 NMtPBC=     1 NCelOv=     1 NCel=       1 NClECP=     1 NCelD=      1
         NCelK=      1 NCelE2=     1 NClLst=     1 CellRange=     0.0.
 One-electron integrals computed using PRISM.
 One-electron integral symmetry used in STVInt
 NBasis=    99 RedAO= T EigKep=  6.77D-04  NBF=    99
 NBsUse=    99 1.00D-06 EigRej= -1.00D+00 NBFU=    99
 Precomputing XC quadrature grid using
 IXCGrd= 4 IRadAn=           5 IRanWt=          -1 IRanGd=           0 AccXCQ= 0.00D+00.
 Generated NRdTot=       0 NPtTot=           0 NUsed=           0 NTot=          32
 NSgBfM=    99    99    99    99    99 MxSgAt=    10 MxSgA2=    10.
 Leave Link  302 at Wed Dec 29 11:01:00 2021, MaxMem=   131072000 cpu:               2.0 elap:               0.5
 (Enter /public/scc/g16/g16/l303.exe)
 DipDrv:  MaxL=1.
 Leave Link  303 at Wed Dec 29 11:01:02 2021, MaxMem=   131072000 cpu:               2.3 elap:               0.8
 (Enter /public/scc/g16/g16/l401.exe)
 Initial guess from the checkpoint file:  "DMA.chk"
 B after Tr=    -0.000000    0.000000    0.000000
         Rot=    0.999998    0.002233   -0.000000   -0.000000 Ang=   0.26 deg.
 Guess basis will be translated and rotated to current coordinates.
 JPrj=2 DoOrth=T DoCkMO=T.
 Generating alternative initial guess.
 ExpMin= 3.60D-02 ExpMax= 4.17D+03 ExpMxC= 6.27D+02 IAcc=3 IRadAn=         5 AccDes= 0.00D+00
 Harris functional with IExCor= 4639 and IRadAn=       5 diagonalized for initial guess.
 HarFok:  IExCor= 4639 AccDes= 0.00D+00 IRadAn=         5 IDoV= 1 UseB2=F ITyADJ=14
 ICtDFT=  3500011 ScaDFX=  1.000000  1.000000  1.000000  1.000000
 FoFCou: FMM=F IPFlag=           0 FMFlag=      100000 FMFlg1=           0
         NFxFlg=           0 DoJE=T BraDBF=F KetDBF=T FulRan=T
         wScrn=  0.000000 ICntrl=       500 IOpCl=  0 I1Cent=   200000004 NGrid=           0
         NMat0=    1 NMatS0=      1 NMatT0=    0 NMatD0=    1 NMtDS0=    0 NMtDT0=    0
 Petite list used in FoFCou.
 Harris En= -128.706971533577    
 Leave Link  401 at Wed Dec 29 11:01:05 2021, MaxMem=   131072000 cpu:              13.2 elap:               2.1
 (Enter /public/scc/g16/g16/l502.exe)
 Keep R1 ints in memory in canonical form, NReq=31879294.
 FoFCou: FMM=F IPFlag=           0 FMFlag=           0 FMFlg1=           0
         NFxFlg=           0 DoJE=F BraDBF=F KetDBF=F FulRan=T
         wScrn=  0.000000 ICntrl=       600 IOpCl=  0 I1Cent=           0 NGrid=           0
         NMat0=    1 NMatS0=   4950 NMatT0=    0 NMatD0=    1 NMtDS0=    0 NMtDT0=    0
 Symmetry not used in FoFCou.
 Two-electron integral symmetry not used.
 Closed shell SCF:
 Using DIIS extrapolation, IDIIS=  1040.
 NGot=   131072000 LenX=   106542938 LenY=   106532696
 Requested convergence on RMS density matrix=1.00D-08 within 128 cycles.
 Requested convergence on MAX density matrix=1.00D-06.
 Requested convergence on             energy=1.00D-06.
 No special actions if energy rises.

 Cycle   1  Pass 1  IDiag  1:
 E= -135.134463796175    
 DIIS: error= 3.54D-04 at cycle   1 NSaved=   1.
 NSaved= 1 IEnMin= 1 EnMin= -135.134463796175     IErMin= 1 ErrMin= 3.54D-04
 ErrMax= 3.54D-04  0.00D+00 EMaxC= 1.00D-01 BMatC= 2.42D-05 BMatP= 2.42D-05
 IDIUse=3 WtCom= 9.96D-01 WtEn= 3.54D-03
 Coeff-Com:  0.100D+01
 Coeff-En:   0.100D+01
 Coeff:      0.100D+01
 Gap=     0.520 Goal=   None    Shift=    0.000
 RMSDP=8.73D-05 MaxDP=1.64D-03              OVMax= 1.79D-03

 Cycle   2  Pass 1  IDiag  1:
 E= -135.134499650213     Delta-E=       -0.000035854038 Rises=F Damp=F
 DIIS: error= 1.20D-04 at cycle   2 NSaved=   2.
 NSaved= 2 IEnMin= 2 EnMin= -135.134499650213     IErMin= 2 ErrMin= 1.20D-04
 ErrMax= 1.20D-04  0.00D+00 EMaxC= 1.00D-01 BMatC= 1.54D-06 BMatP= 2.42D-05
 IDIUse=3 WtCom= 9.99D-01 WtEn= 1.20D-03
 Coeff-Com: -0.356D-01 0.104D+01
 Coeff-En:   0.000D+00 0.100D+01
 Coeff:     -0.356D-01 0.104D+01
 Gap=     0.345 Goal=   None    Shift=    0.000
 RMSDP=3.30D-05 MaxDP=4.51D-04 DE=-3.59D-05 OVMax= 7.12D-04

 Cycle   3  Pass 1  IDiag  1:
 E= -135.134501572817     Delta-E=       -0.000001922604 Rises=F Damp=F
 DIIS: error= 6.40D-05 at cycle   3 NSaved=   3.
 NSaved= 3 IEnMin= 3 EnMin= -135.134501572817     IErMin= 3 ErrMin= 6.40D-05
 ErrMax= 6.40D-05  0.00D+00 EMaxC= 1.00D-01 BMatC= 6.97D-07 BMatP= 1.54D-06
 IDIUse=1 WtCom= 1.00D+00 WtEn= 0.00D+00
 Coeff-Com: -0.738D-01 0.416D+00 0.658D+00
 Coeff:     -0.738D-01 0.416D+00 0.658D+00
 Gap=     0.345 Goal=   None    Shift=    0.000
 RMSDP=9.24D-06 MaxDP=2.38D-04 DE=-1.92D-06 OVMax= 2.64D-04

 Cycle   4  Pass 1  IDiag  1:
 E= -135.134502215941     Delta-E=       -0.000000643124 Rises=F Damp=F
 DIIS: error= 2.01D-05 at cycle   4 NSaved=   4.
 NSaved= 4 IEnMin= 4 EnMin= -135.134502215941     IErMin= 4 ErrMin= 2.01D-05
 ErrMax= 2.01D-05  0.00D+00 EMaxC= 1.00D-01 BMatC= 4.57D-08 BMatP= 6.97D-07
 IDIUse=1 WtCom= 1.00D+00 WtEn= 0.00D+00
 Coeff-Com: -0.177D-01 0.285D-01 0.214D+00 0.775D+00
 Coeff:     -0.177D-01 0.285D-01 0.214D+00 0.775D+00
 Gap=     0.345 Goal=   None    Shift=    0.000
 RMSDP=4.42D-06 MaxDP=7.06D-05 DE=-6.43D-07 OVMax= 1.09D-04

 Cycle   5  Pass 1  IDiag  1:
 E= -135.134502268430     Delta-E=       -0.000000052489 Rises=F Damp=F
 DIIS: error= 4.50D-06 at cycle   5 NSaved=   5.
 NSaved= 5 IEnMin= 5 EnMin= -135.134502268430     IErMin= 5 ErrMin= 4.50D-06
 ErrMax= 4.50D-06  0.00D+00 EMaxC= 1.00D-01 BMatC= 2.46D-09 BMatP= 4.57D-08
 IDIUse=1 WtCom= 1.00D+00 WtEn= 0.00D+00
 Coeff-Com:  0.379D-02-0.371D-01-0.185D-01 0.142D+00 0.910D+00
 Coeff:      0.379D-02-0.371D-01-0.185D-01 0.142D+00 0.910D+00
 Gap=     0.345 Goal=   None    Shift=    0.000
 RMSDP=1.38D-06 MaxDP=2.69D-05 DE=-5.25D-08 OVMax= 4.50D-05

 Cycle   6  Pass 1  IDiag  1:
 E= -135.134502273083     Delta-E=       -0.000000004652 Rises=F Damp=F
 DIIS: error= 1.32D-06 at cycle   6 NSaved=   6.
 NSaved= 6 IEnMin= 6 EnMin= -135.134502273083     IErMin= 6 ErrMin= 1.32D-06
 ErrMax= 1.32D-06  0.00D+00 EMaxC= 1.00D-01 BMatC= 3.03D-10 BMatP= 2.46D-09
 IDIUse=1 WtCom= 1.00D+00 WtEn= 0.00D+00
 Coeff-Com:  0.264D-02-0.152D-01-0.234D-01-0.173D-01 0.289D+00 0.765D+00
 Coeff:      0.264D-02-0.152D-01-0.234D-01-0.173D-01 0.289D+00 0.765D+00
 Gap=     0.345 Goal=   None    Shift=    0.000
 RMSDP=4.13D-07 MaxDP=9.42D-06 DE=-4.65D-09 OVMax= 1.42D-05

 Cycle   7  Pass 1  IDiag  1:
 E= -135.134502273610     Delta-E=       -0.000000000527 Rises=F Damp=F
 DIIS: error= 4.49D-07 at cycle   7 NSaved=   7.
 NSaved= 7 IEnMin= 7 EnMin= -135.134502273610     IErMin= 7 ErrMin= 4.49D-07
 ErrMax= 4.49D-07  0.00D+00 EMaxC= 1.00D-01 BMatC= 1.27D-11 BMatP= 3.03D-10
 IDIUse=1 WtCom= 1.00D+00 WtEn= 0.00D+00
 Coeff-Com: -0.392D-03 0.365D-02 0.307D-02-0.100D-01-0.902D-01-0.219D-01
 Coeff-Com:  0.112D+01
 Coeff:     -0.392D-03 0.365D-02 0.307D-02-0.100D-01-0.902D-01-0.219D-01
 Coeff:      0.112D+01
 Gap=     0.345 Goal=   None    Shift=    0.000
 RMSDP=2.20D-07 MaxDP=3.76D-06 DE=-5.27D-10 OVMax= 8.36D-06

 Cycle   8  Pass 1  IDiag  1:
 E= -135.134502273675     Delta-E=       -0.000000000065 Rises=F Damp=F
 DIIS: error= 1.19D-07 at cycle   8 NSaved=   8.
 NSaved= 8 IEnMin= 8 EnMin= -135.134502273675     IErMin= 8 ErrMin= 1.19D-07
 ErrMax= 1.19D-07  0.00D+00 EMaxC= 1.00D-01 BMatC= 8.70D-13 BMatP= 1.27D-11
 IDIUse=1 WtCom= 1.00D+00 WtEn= 0.00D+00
 Coeff-Com: -0.160D-03 0.783D-03 0.149D-02 0.209D-02-0.176D-01-0.550D-01
 Coeff-Com: -0.617D-01 0.113D+01
 Coeff:     -0.160D-03 0.783D-03 0.149D-02 0.209D-02-0.176D-01-0.550D-01
 Coeff:     -0.617D-01 0.113D+01
 Gap=     0.345 Goal=   None    Shift=    0.000
 RMSDP=6.49D-08 MaxDP=1.04D-06 DE=-6.47D-11 OVMax= 2.76D-06

 Cycle   9  Pass 1  IDiag  1:
 E= -135.134502273680     Delta-E=       -0.000000000005 Rises=F Damp=F
 DIIS: error= 2.62D-08 at cycle   9 NSaved=   9.
 NSaved= 9 IEnMin= 9 EnMin= -135.134502273680     IErMin= 9 ErrMin= 2.62D-08
 ErrMax= 2.62D-08  0.00D+00 EMaxC= 1.00D-01 BMatC= 4.46D-14 BMatP= 8.70D-13
 IDIUse=1 WtCom= 1.00D+00 WtEn= 0.00D+00
 Coeff-Com:  0.521D-04-0.377D-03-0.381D-03 0.314D-03 0.890D-02 0.938D-02
 Coeff-Com: -0.665D-01-0.162D+00 0.121D+01
 Coeff:      0.521D-04-0.377D-03-0.381D-03 0.314D-03 0.890D-02 0.938D-02
 Coeff:     -0.665D-01-0.162D+00 0.121D+01
 Gap=     0.345 Goal=   None    Shift=    0.000
 RMSDP=1.41D-08 MaxDP=2.60D-07 DE=-5.34D-12 OVMax= 6.65D-07

 Cycle  10  Pass 1  IDiag  1:
 E= -135.134502273678     Delta-E=        0.000000000002 Rises=F Damp=F
 DIIS: error= 4.01D-09 at cycle  10 NSaved=  10.
 NSaved=10 IEnMin= 9 EnMin= -135.134502273680     IErMin=10 ErrMin= 4.01D-09
 ErrMax= 4.01D-09  0.00D+00 EMaxC= 1.00D-01 BMatC= 1.29D-15 BMatP= 4.46D-14
 IDIUse=1 WtCom= 1.00D+00 WtEn= 0.00D+00
 Coeff-Com:  0.306D-06 0.104D-04-0.150D-04-0.830D-04-0.230D-03 0.129D-02
 Coeff-Com:  0.895D-02-0.244D-01-0.101D+00 0.112D+01
 Coeff:      0.306D-06 0.104D-04-0.150D-04-0.830D-04-0.230D-03 0.129D-02
 Coeff:      0.895D-02-0.244D-01-0.101D+00 0.112D+01
 Gap=     0.345 Goal=   None    Shift=    0.000
 RMSDP=2.94D-09 MaxDP=4.15D-08 DE= 1.82D-12 OVMax= 7.94D-08

 SCF Done:  E(RwB97XD) =  -135.134502274     A.U. after   10 cycles
            NFock= 10  Conv=0.29D-08     -V/T= 2.0100
 KE= 1.337969738725D+02 PE=-4.813635557223D+02 EE= 1.282421211653D+02
 Leave Link  502 at Wed Dec 29 11:01:12 2021, MaxMem=   131072000 cpu:              52.6 elap:               7.0
 (Enter /public/scc/g16/g16/l701.exe)
 ... and contract with generalized density number  0.
 Compute integral first derivatives.
 R6Disp: Adding Grimme-D2 dispersion energy 1st derivatives to the gradient.
 Leave Link  701 at Wed Dec 29 11:01:13 2021, MaxMem=   131072000 cpu:               1.6 elap:               0.3
 (Enter /public/scc/g16/g16/l702.exe)
 L702 exits ... SP integral derivatives will be done elsewhere.
 Leave Link  702 at Wed Dec 29 11:01:13 2021, MaxMem=   131072000 cpu:               0.2 elap:               0.1
 (Enter /public/scc/g16/g16/l703.exe)
 Integral derivatives from FoFJK, PRISM(SPDF).
 Compute integral first derivatives, UseDBF=F ICtDFT=           0.
 Calling FoFJK, ICntrl=      2127 FMM=F ISym2X=0 I1Cent= 0 IOpClX= 0 NMat=1 NMatS=1 NMatT=0.
 FoFJK:  IHMeth= 1 ICntrl=    2127 DoSepK=T KAlg= 0 I1Cent=           0 FoldK=F
 IRaf=         1 NMat=       1 IRICut=       1 DoRegI=T DoRafI=F ISym2E= 0 IDoP0=0 IntGTp=1.
 FoFCou: FMM=F IPFlag=           0 FMFlag=      100000 FMFlg1=         800
         NFxFlg=           0 DoJE=F BraDBF=F KetDBF=F FulRan=T
         wScrn=  0.000000 ICntrl=      2527 IOpCl=  0 I1Cent=           0 NGrid=           0
         NMat0=    1 NMatS0=      1 NMatT0=    0 NMatD0=    1 NMtDS0=    0 NMtDT0=    0
 Symmetry not used in FoFCou.
 Leave Link  703 at Wed Dec 29 11:01:16 2021, MaxMem=   131072000 cpu:              13.7 elap:               1.8
 (Enter /public/scc/g16/g16/l716.exe)
 Dipole        = 5.14069605D-08-9.76795007D-02 4.35941628D-01
 ***** Axes restored to original set *****
 -------------------------------------------------------------------
 Center     Atomic                   Forces (Hartrees/Bohr)
 Number     Number              X              Y              Z
 -------------------------------------------------------------------
      1        7           0.000000052   -0.000179708    0.000622901
      2        6          -0.000023258    0.000422571   -0.000234586
      3        6           0.000023313    0.000422517   -0.000234693
      4        1           0.000000010    0.000044615   -0.000395913
      5        1           0.000075232   -0.000006148    0.000022730
      6        1           0.000088761   -0.000185043    0.000018676
      7        1           0.000122607   -0.000163834    0.000079680
      8        1          -0.000075206   -0.000006056    0.000022794
      9        1          -0.000122676   -0.000163834    0.000079666
     10        1          -0.000088836   -0.000185080    0.000018746
 -------------------------------------------------------------------
 Cartesian Forces:  Max     0.000622901 RMS     0.000203402
 Leave Link  716 at Wed Dec 29 11:01:16 2021, MaxMem=   131072000 cpu:               0.3 elap:               0.1
 (Enter /public/scc/g16/g16/l103.exe)

 GradGradGradGradGradGradGradGradGradGradGradGradGradGradGradGradGradGrad
 Berny optimization.
 Using GEDIIS/GDIIS optimizer.
 FormGI is forming the generalized inverse of G from B-inverse, IUseBI=4.
 Internal  Forces:  Max     0.000310928 RMS     0.000138782
 Search for a local minimum.
 Step number   2 out of a maximum of   46
 All quantities printed in internal units (Hartrees-Bohrs-Radians)
 RMS Force = .13878D-03 SwitMx=.10000D-02 MixMth= 2
 Mixed Optimization -- En-DIIS/RFO-DIIS
 Swapping is turned off.
 Update second derivatives using D2CorX and points    1    2
 DE= -6.36D-05 DEPred=-6.63D-05 R= 9.59D-01
 TightC=F SS=  1.41D+00  RLast= 3.07D-02 DXNew= 5.0454D-01 9.2067D-02
 Trust test= 9.59D-01 RLast= 3.07D-02 DXMaxT set to 3.00D-01
 ITU=  1  0
     Eigenvalues ---    0.00931   0.00932   0.02552   0.07046   0.07070
     Eigenvalues ---    0.07610   0.07627   0.11177   0.15708   0.16000
     Eigenvalues ---    0.16000   0.16000   0.16000   0.17581   0.24106
     Eigenvalues ---    0.33106   0.33150   0.34279   0.34285   0.34500
     Eigenvalues ---    0.34536   0.37279   0.38618   0.45308
 En-DIIS/RFO-DIIS/Sim-DIIS IScMMF=       -3 using points:     2    1
 RFO step:  Lambda=-6.87173216D-06.
 NNeg= 0 NGDIIS= 2 SimSw=  2.50D-03 Rises=F DC= -6.36D-05 SmlDif=  1.00D-05
 NRisDI= 0 DoIntr=F SqrtH=F CThrHd= 10.0 CDAdj=  3.0
 RMS Error=  0.2357351196D-02 NUsed= 2 OKEnD=T EnDIS=F
 InvSVX:  RCond= 2.35D-04 Info=           0 Equed=N FErr=  1.83D-15 BErr=  5.47D-17
 DidBck=F Rises=F RFO-DIIS coefs:    1.21926   -0.21926
 Iteration  1 RMS(Cart)=  0.00194223 RMS(Int)=  0.00000616
 Iteration  2 RMS(Cart)=  0.00000473 RMS(Int)=  0.00000419
 Iteration  3 RMS(Cart)=  0.00000000 RMS(Int)=  0.00000419
 ITry= 1 IFail=0 DXMaxC= 5.21D-03 DCOld= 1.00D+10 DXMaxT= 3.00D-01 DXLimC= 3.00D+00 Rises=F
 Variable       Old X    -DE/DX   Delta X   Delta X   Delta X     New X
                                 (Linear)    (Quad)   (Total)
    R1        2.74574   0.00017  -0.00187   0.00189   0.00001   2.74576
    R2        2.74574   0.00017  -0.00187   0.00189   0.00001   2.74576
    R3        1.91600  -0.00022  -0.00015  -0.00036  -0.00051   1.91549
    R4        2.07004  -0.00001   0.00031  -0.00026   0.00005   2.07009
    R5        2.06610  -0.00004   0.00025  -0.00031  -0.00005   2.06604
    R6        2.08778   0.00016  -0.00019   0.00060   0.00041   2.08819
    R7        2.07004  -0.00001   0.00031  -0.00027   0.00005   2.07009
    R8        2.08778   0.00016  -0.00019   0.00060   0.00041   2.08819
    R9        2.06610  -0.00004   0.00025  -0.00031  -0.00005   2.06604
    A1        1.96787   0.00031  -0.00099   0.00304   0.00204   1.96991
    A2        1.91489  -0.00001   0.00147   0.00126   0.00272   1.91761
    A3        1.91489  -0.00001   0.00147   0.00126   0.00272   1.91761
    A4        1.90665   0.00001  -0.00077   0.00051  -0.00027   1.90639
    A5        1.91460   0.00025  -0.00007   0.00166   0.00159   1.91619
    A6        1.98500   0.00016  -0.00203   0.00257   0.00054   1.98554
    A7        1.88038  -0.00015   0.00097  -0.00176  -0.00079   1.87959
    A8        1.87959  -0.00013   0.00106  -0.00178  -0.00073   1.87886
    A9        1.89462  -0.00017   0.00103  -0.00150  -0.00047   1.89415
   A10        1.90665   0.00001  -0.00077   0.00051  -0.00027   1.90639
   A11        1.98500   0.00016  -0.00203   0.00257   0.00054   1.98554
   A12        1.91460   0.00025  -0.00007   0.00166   0.00159   1.91619
   A13        1.87959  -0.00013   0.00106  -0.00178  -0.00073   1.87886
   A14        1.88038  -0.00015   0.00097  -0.00176  -0.00079   1.87959
   A15        1.89462  -0.00017   0.00103  -0.00150  -0.00047   1.89415
    D1        1.13490  -0.00009  -0.00167  -0.00050  -0.00218   1.13273
    D2       -3.09077  -0.00012  -0.00100  -0.00136  -0.00236  -3.09313
    D3       -0.96539  -0.00004  -0.00112  -0.00029  -0.00141  -0.96680
    D4       -3.00841   0.00011   0.00061   0.00414   0.00475  -3.00366
    D5       -0.95089   0.00008   0.00128   0.00328   0.00456  -0.94633
    D6        1.17449   0.00015   0.00116   0.00435   0.00551   1.18000
    D7       -1.13490   0.00009   0.00167   0.00050   0.00217  -1.13273
    D8        0.96539   0.00004   0.00112   0.00028   0.00141   0.96680
    D9        3.09077   0.00012   0.00100   0.00136   0.00236   3.09313
   D10        3.00841  -0.00011  -0.00061  -0.00414  -0.00475   3.00366
   D11       -1.17449  -0.00015  -0.00116  -0.00435  -0.00551  -1.18000
   D12        0.95089  -0.00008  -0.00129  -0.00328  -0.00456   0.94633
         Item               Value     Threshold  Converged?
 Maximum Force            0.000311     0.000450     YES
 RMS     Force            0.000139     0.000300     YES
 Maximum Displacement     0.005206     0.001800     NO 
 RMS     Displacement     0.001941     0.001200     NO 
 Predicted change in Energy=-3.450716D-06
 Lowest energy point so far.  Saving SCF results.
 GradGradGradGradGradGradGradGradGradGradGradGradGradGradGradGradGradGrad

 Leave Link  103 at Wed Dec 29 11:01:17 2021, MaxMem=   131072000 cpu:               1.3 elap:               0.2
 (Enter /public/scc/g16/g16/l202.exe)
                          Input orientation:                          
 ---------------------------------------------------------------------
 Center     Atomic      Atomic             Coordinates (Angstroms)
 Number     Number       Type             X           Y           Z
 ---------------------------------------------------------------------
      1          7           0        0.000000    0.563690   -0.141749
      2          6           0        1.210701   -0.223127    0.020458
      3          6           0       -1.210701   -0.223127    0.020458
      4          1           0       -0.000000    1.335417    0.515437
      5          1           0        1.268712   -0.965666   -0.782825
      6          1           0        2.087254    0.425039   -0.062276
      7          1           0        1.264150   -0.764920    0.982061
      8          1           0       -1.268711   -0.965667   -0.782825
      9          1           0       -1.264151   -0.764918    0.982061
     10          1           0       -2.087254    0.425039   -0.062279
 ---------------------------------------------------------------------
                    Distance matrix (angstroms):
                    1          2          3          4          5
     1  N    0.000000
     2  C    1.452993   0.000000
     3  C    1.452993   2.421401   0.000000
     4  H    1.013636   2.034665   2.034665   0.000000
     5  H    2.087951   1.095442   2.710003   2.930887   0.000000
     6  H    2.093363   1.093303   3.362063   2.349292   1.767275
     7  H    2.150866   1.105023   2.709816   2.495442   1.776272
     8  H    2.087951   2.710002   1.095442   2.930888   2.537423
     9  H    2.150866   2.709817   1.105023   2.495441   3.093626
    10  H    2.093363   3.362063   1.093303   2.349292   3.703479
                    6          7          8          9         10
     6  H    0.000000
     7  H    1.784417   0.000000
     8  H    3.703479   3.093623   0.000000
     9  H    3.706556   2.528301   1.776272   0.000000
    10  H    4.174508   3.706556   1.767275   1.784417   0.000000
 Stoichiometry    C2H7N
 Framework group  C1[X(C2H7N)]
 Deg. of freedom    24
 Full point group                 C1      NOp   1
 RotChk:  IX=0 Diff= 1.50D-03
 Largest Abelian subgroup         C1      NOp   1
 Largest concise Abelian subgroup C1      NOp   1
                         Standard orientation:                         
 ---------------------------------------------------------------------
 Center     Atomic      Atomic             Coordinates (Angstroms)
 Number     Number       Type             X           Y           Z
 ---------------------------------------------------------------------
      1          7           0        0.000000    0.562962   -0.147307
      2          6           0        1.210701   -0.222707    0.020369
      3          6           0       -1.210701   -0.222707    0.020369
      4          1           0        0.000000    1.339243    0.504495
      5          1           0        1.268712   -0.970815   -0.777730
      6          1           0        2.087254    0.424868   -0.066872
      7          1           0        1.264150   -0.757798    0.985717
      8          1           0       -1.268711   -0.970817   -0.777729
      9          1           0       -1.264151   -0.757796    0.985718
     10          1           0       -2.087254    0.424868   -0.066875
 ---------------------------------------------------------------------
 Rotational constants (GHZ):          34.6976547           9.3385123           8.2443810
 Leave Link  202 at Wed Dec 29 11:01:17 2021, MaxMem=   131072000 cpu:               2.2 elap:               0.4
 (Enter /public/scc/g16/g16/l301.exe)
 Standard basis: 6-31++G(d,p) (6D, 7F)
 Ernie: Thresh=  0.10000D-02 Tol=  0.10000D-05 Strict=F.
 There are    99 symmetry adapted cartesian basis functions of A   symmetry.
 There are    99 symmetry adapted basis functions of A   symmetry.
    99 basis functions,   152 primitive gaussians,    99 cartesian basis functions
    13 alpha electrons       13 beta electrons
       nuclear repulsion energy        84.1757555545 Hartrees.
 IExCor= 4639 DFT=T Ex+Corr=wB97XD ExCW=0 ScaHFX=  1.000000
 ScaDFX=  1.000000  1.000000  1.000000  1.000000 ScalE2=  1.000000  1.000000
 IRadAn=      5 IRanWt=     -1 IRanGd=            0 ICorTp=0 IEmpDi=121
 HFx  wShort=  0.000000 wLong=  0.200000 cFull=  0.222036 cShort=  0.000000 cLong=  0.777964
 DFx  wShort=  0.000000 wLong=  0.200000 cFull=  0.000000 cShort=  0.000000 cLong=  1.000000
 NAtoms=   10 NActive=   10 NUniq=   10 SFac= 1.00D+00 NAtFMM=   60 NAOKFM=F Big=F
 Integral buffers will be    131072 words long.
 Raffenetti 2 integral format.
 Two-electron integral symmetry is turned on.
 R6Disp:  Grimme-D2 Dispersion energy=       -0.0031485557 Hartrees.
 Nuclear repulsion after empirical dispersion term =       84.1726069988 Hartrees.
 Leave Link  301 at Wed Dec 29 11:01:19 2021, MaxMem=   131072000 cpu:               2.0 elap:               0.7
 (Enter /public/scc/g16/g16/l302.exe)
 NPDir=0 NMtPBC=     1 NCelOv=     1 NCel=       1 NClECP=     1 NCelD=      1
         NCelK=      1 NCelE2=     1 NClLst=     1 CellRange=     0.0.
 One-electron integrals computed using PRISM.
 One-electron integral symmetry used in STVInt
 NBasis=    99 RedAO= T EigKep=  6.78D-04  NBF=    99
 NBsUse=    99 1.00D-06 EigRej= -1.00D+00 NBFU=    99
 Precomputing XC quadrature grid using
 IXCGrd= 4 IRadAn=           5 IRanWt=          -1 IRanGd=           0 AccXCQ= 0.00D+00.
 Generated NRdTot=       0 NPtTot=           0 NUsed=           0 NTot=          32
 NSgBfM=    99    99    99    99    99 MxSgAt=    10 MxSgA2=    10.
 Leave Link  302 at Wed Dec 29 11:01:21 2021, MaxMem=   131072000 cpu:               5.9 elap:               1.3
 (Enter /public/scc/g16/g16/l303.exe)
 DipDrv:  MaxL=1.
 Leave Link  303 at Wed Dec 29 11:01:21 2021, MaxMem=   131072000 cpu:               0.3 elap:               0.1
 (Enter /public/scc/g16/g16/l401.exe)
 Initial guess from the checkpoint file:  "DMA.chk"
 B after Tr=    -0.000000   -0.000000   -0.000000
         Rot=    1.000000    0.000262   -0.000000    0.000000 Ang=   0.03 deg.
 Guess basis will be translated and rotated to current coordinates.
 JPrj=2 DoOrth=T DoCkMO=T.
 Leave Link  401 at Wed Dec 29 11:01:22 2021, MaxMem=   131072000 cpu:               1.0 elap:               0.2
 (Enter /public/scc/g16/g16/l502.exe)
 Keep R1 ints in memory in canonical form, NReq=31879294.
 FoFCou: FMM=F IPFlag=           0 FMFlag=           0 FMFlg1=           0
         NFxFlg=           0 DoJE=F BraDBF=F KetDBF=F FulRan=T
         wScrn=  0.000000 ICntrl=       600 IOpCl=  0 I1Cent=           0 NGrid=           0
         NMat0=    1 NMatS0=   4950 NMatT0=    0 NMatD0=    1 NMtDS0=    0 NMtDT0=    0
 Symmetry not used in FoFCou.
 Two-electron integral symmetry not used.
 Closed shell SCF:
 Using DIIS extrapolation, IDIIS=  1040.
 NGot=   131072000 LenX=   106542938 LenY=   106532696
 Requested convergence on RMS density matrix=1.00D-08 within 128 cycles.
 Requested convergence on MAX density matrix=1.00D-06.
 Requested convergence on             energy=1.00D-06.
 No special actions if energy rises.

 Cycle   1  Pass 1  IDiag  1:
 E= -135.134501689035    
 DIIS: error= 1.39D-04 at cycle   1 NSaved=   1.
 NSaved= 1 IEnMin= 1 EnMin= -135.134501689035     IErMin= 1 ErrMin= 1.39D-04
 ErrMax= 1.39D-04  0.00D+00 EMaxC= 1.00D-01 BMatC= 3.27D-06 BMatP= 3.27D-06
 IDIUse=3 WtCom= 9.99D-01 WtEn= 1.39D-03
 Coeff-Com:  0.100D+01
 Coeff-En:   0.100D+01
 Coeff:      0.100D+01
 Gap=     0.520 Goal=   None    Shift=    0.000
 RMSDP=3.28D-05 MaxDP=5.93D-04              OVMax= 7.92D-04

 Cycle   2  Pass 1  IDiag  1:
 E= -135.134506147969     Delta-E=       -0.000004458934 Rises=F Damp=F
 DIIS: error= 2.70D-05 at cycle   2 NSaved=   2.
 NSaved= 2 IEnMin= 2 EnMin= -135.134506147969     IErMin= 2 ErrMin= 2.70D-05
 ErrMax= 2.70D-05  0.00D+00 EMaxC= 1.00D-01 BMatC= 1.44D-07 BMatP= 3.27D-06
 IDIUse=1 WtCom= 1.00D+00 WtEn= 0.00D+00
 Coeff-Com: -0.104D+00 0.110D+01
 Coeff:     -0.104D+00 0.110D+01
 Gap=     0.345 Goal=   None    Shift=    0.000
 RMSDP=1.12D-05 MaxDP=1.75D-04 DE=-4.46D-06 OVMax= 2.79D-04

 Cycle   3  Pass 1  IDiag  1:
 E= -135.134506351235     Delta-E=       -0.000000203266 Rises=F Damp=F
 DIIS: error= 2.49D-05 at cycle   3 NSaved=   3.
 NSaved= 3 IEnMin= 3 EnMin= -135.134506351235     IErMin= 3 ErrMin= 2.49D-05
 ErrMax= 2.49D-05  0.00D+00 EMaxC= 1.00D-01 BMatC= 7.64D-08 BMatP= 1.44D-07
 IDIUse=1 WtCom= 1.00D+00 WtEn= 0.00D+00
 Coeff-Com: -0.821D-01 0.499D+00 0.583D+00
 Coeff:     -0.821D-01 0.499D+00 0.583D+00
 Gap=     0.345 Goal=   None    Shift=    0.000
 RMSDP=2.86D-06 MaxDP=7.80D-05 DE=-2.03D-07 OVMax= 8.03D-05

 Cycle   4  Pass 1  IDiag  1:
 E= -135.134506415410     Delta-E=       -0.000000064175 Rises=F Damp=F
 DIIS: error= 4.49D-06 at cycle   4 NSaved=   4.
 NSaved= 4 IEnMin= 4 EnMin= -135.134506415410     IErMin= 4 ErrMin= 4.49D-06
 ErrMax= 4.49D-06  0.00D+00 EMaxC= 1.00D-01 BMatC= 2.48D-09 BMatP= 7.64D-08
 IDIUse=1 WtCom= 1.00D+00 WtEn= 0.00D+00
 Coeff-Com: -0.697D-02-0.154D-01 0.114D+00 0.908D+00
 Coeff:     -0.697D-02-0.154D-01 0.114D+00 0.908D+00
 Gap=     0.345 Goal=   None    Shift=    0.000
 RMSDP=1.45D-06 MaxDP=3.12D-05 DE=-6.42D-08 OVMax= 3.20D-05

 Cycle   5  Pass 1  IDiag  1:
 E= -135.134506418944     Delta-E=       -0.000000003534 Rises=F Damp=F
 DIIS: error= 9.56D-07 at cycle   5 NSaved=   5.
 NSaved= 5 IEnMin= 5 EnMin= -135.134506418944     IErMin= 5 ErrMin= 9.56D-07
 ErrMax= 9.56D-07  0.00D+00 EMaxC= 1.00D-01 BMatC= 1.31D-10 BMatP= 2.48D-09
 IDIUse=1 WtCom= 1.00D+00 WtEn= 0.00D+00
 Coeff-Com:  0.566D-02-0.434D-01-0.272D-01 0.154D+00 0.911D+00
 Coeff:      0.566D-02-0.434D-01-0.272D-01 0.154D+00 0.911D+00
 Gap=     0.345 Goal=   None    Shift=    0.000
 RMSDP=5.13D-07 MaxDP=1.20D-05 DE=-3.53D-09 OVMax= 1.23D-05

 Cycle   6  Pass 1  IDiag  1:
 E= -135.134506419228     Delta-E=       -0.000000000284 Rises=F Damp=F
 DIIS: error= 2.69D-07 at cycle   6 NSaved=   6.
 NSaved= 6 IEnMin= 6 EnMin= -135.134506419228     IErMin= 6 ErrMin= 2.69D-07
 ErrMax= 2.69D-07  0.00D+00 EMaxC= 1.00D-01 BMatC= 1.15D-11 BMatP= 1.31D-10
 IDIUse=1 WtCom= 1.00D+00 WtEn= 0.00D+00
 Coeff-Com:  0.150D-02-0.890D-02-0.102D-01-0.879D-02 0.213D+00 0.813D+00
 Coeff:      0.150D-02-0.890D-02-0.102D-01-0.879D-02 0.213D+00 0.813D+00
 Gap=     0.345 Goal=   None    Shift=    0.000
 RMSDP=1.03D-07 MaxDP=1.69D-06 DE=-2.84D-10 OVMax= 3.27D-06

 Cycle   7  Pass 1  IDiag  1:
 E= -135.134506419254     Delta-E=       -0.000000000026 Rises=F Damp=F
 DIIS: error= 1.01D-07 at cycle   7 NSaved=   7.
 NSaved= 7 IEnMin= 7 EnMin= -135.134506419254     IErMin= 7 ErrMin= 1.01D-07
 ErrMax= 1.01D-07  0.00D+00 EMaxC= 1.00D-01 BMatC= 1.39D-12 BMatP= 1.15D-11
 IDIUse=1 WtCom= 1.00D+00 WtEn= 0.00D+00
 Coeff-Com: -0.605D-03 0.507D-02 0.258D-02-0.279D-01-0.972D-01 0.149D+00
 Coeff-Com:  0.969D+00
 Coeff:     -0.605D-03 0.507D-02 0.258D-02-0.279D-01-0.972D-01 0.149D+00
 Coeff:      0.969D+00
 Gap=     0.345 Goal=   None    Shift=    0.000
 RMSDP=6.04D-08 MaxDP=9.48D-07 DE=-2.57D-11 OVMax= 2.01D-06

 Cycle   8  Pass 1  IDiag  1:
 E= -135.134506419255     Delta-E=       -0.000000000001 Rises=F Damp=F
 DIIS: error= 2.66D-08 at cycle   8 NSaved=   8.
 NSaved= 8 IEnMin= 8 EnMin= -135.134506419255     IErMin= 8 ErrMin= 2.66D-08
 ErrMax= 2.66D-08  0.00D+00 EMaxC= 1.00D-01 BMatC= 5.70D-14 BMatP= 1.39D-12
 IDIUse=1 WtCom= 1.00D+00 WtEn= 0.00D+00
 Coeff-Com: -0.104D-03 0.617D-03 0.770D-03 0.212D-04-0.130D-01-0.565D-01
 Coeff-Com: -0.206D-01 0.109D+01
 Coeff:     -0.104D-03 0.617D-03 0.770D-03 0.212D-04-0.130D-01-0.565D-01
 Coeff:     -0.206D-01 0.109D+01
 Gap=     0.345 Goal=   None    Shift=    0.000
 RMSDP=1.51D-08 MaxDP=2.93D-07 DE=-1.08D-12 OVMax= 6.11D-07

 Cycle   9  Pass 1  IDiag  1:
 E= -135.134506419256     Delta-E=       -0.000000000001 Rises=F Damp=F
 DIIS: error= 6.82D-09 at cycle   9 NSaved=   9.
 NSaved= 9 IEnMin= 9 EnMin= -135.134506419256     IErMin= 9 ErrMin= 6.82D-09
 ErrMax= 6.82D-09  0.00D+00 EMaxC= 1.00D-01 BMatC= 2.93D-15 BMatP= 5.70D-14
 IDIUse=1 WtCom= 1.00D+00 WtEn= 0.00D+00
 Coeff-Com:  0.493D-04-0.396D-03-0.240D-03 0.205D-02 0.826D-02-0.809D-02
 Coeff-Com: -0.717D-01-0.393D-01 0.111D+01
 Coeff:      0.493D-04-0.396D-03-0.240D-03 0.205D-02 0.826D-02-0.809D-02
 Coeff:     -0.717D-01-0.393D-01 0.111D+01
 Gap=     0.345 Goal=   None    Shift=    0.000
 RMSDP=3.40D-09 MaxDP=6.61D-08 DE=-1.48D-12 OVMax= 1.58D-07

 SCF Done:  E(RwB97XD) =  -135.134506419     A.U. after    9 cycles
            NFock=  9  Conv=0.34D-08     -V/T= 2.0100
 KE= 1.337947659203D+02 PE=-4.813278110093D+02 EE= 1.282259316710D+02
 Leave Link  502 at Wed Dec 29 11:01:28 2021, MaxMem=   131072000 cpu:              45.6 elap:               5.9
 (Enter /public/scc/g16/g16/l701.exe)
 ... and contract with generalized density number  0.
 Compute integral first derivatives.
 R6Disp: Adding Grimme-D2 dispersion energy 1st derivatives to the gradient.
 Leave Link  701 at Wed Dec 29 11:01:28 2021, MaxMem=   131072000 cpu:               1.2 elap:               0.2
 (Enter /public/scc/g16/g16/l702.exe)
 L702 exits ... SP integral derivatives will be done elsewhere.
 Leave Link  702 at Wed Dec 29 11:01:29 2021, MaxMem=   131072000 cpu:               0.2 elap:               0.0
 (Enter /public/scc/g16/g16/l703.exe)
 Integral derivatives from FoFJK, PRISM(SPDF).
 Compute integral first derivatives, UseDBF=F ICtDFT=           0.
 Calling FoFJK, ICntrl=      2127 FMM=F ISym2X=0 I1Cent= 0 IOpClX= 0 NMat=1 NMatS=1 NMatT=0.
 FoFJK:  IHMeth= 1 ICntrl=    2127 DoSepK=T KAlg= 0 I1Cent=           0 FoldK=F
 IRaf=         1 NMat=       1 IRICut=       1 DoRegI=T DoRafI=F ISym2E= 0 IDoP0=0 IntGTp=1.
 FoFCou: FMM=F IPFlag=           0 FMFlag=      100000 FMFlg1=         800
         NFxFlg=           0 DoJE=F BraDBF=F KetDBF=F FulRan=T
         wScrn=  0.000000 ICntrl=      2527 IOpCl=  0 I1Cent=           0 NGrid=           0
         NMat0=    1 NMatS0=      1 NMatT0=    0 NMatD0=    1 NMtDS0=    0 NMtDT0=    0
 Symmetry not used in FoFCou.
 Leave Link  703 at Wed Dec 29 11:01:31 2021, MaxMem=   131072000 cpu:              15.8 elap:               2.2
 (Enter /public/scc/g16/g16/l716.exe)
 Dipole        = 5.31762545D-08-9.45642316D-02 4.32943660D-01
 ***** Axes restored to original set *****
 -------------------------------------------------------------------
 Center     Atomic                   Forces (Hartrees/Bohr)
 Number     Number              X              Y              Z
 -------------------------------------------------------------------
      1        7          -0.000000011   -0.000139472    0.000189423
      2        6          -0.000234063    0.000177643   -0.000064863
      3        6           0.000234106    0.000177499   -0.000065059
      4        1          -0.000000003   -0.000023025   -0.000150347
      5        1           0.000045629   -0.000010400    0.000005428
      6        1          -0.000025393   -0.000026568    0.000023632
      7        1           0.000066531   -0.000059427    0.000016276
      8        1          -0.000045647   -0.000010241    0.000005619
      9        1          -0.000066519   -0.000059457    0.000016270
     10        1           0.000025369   -0.000026552    0.000023620
 -------------------------------------------------------------------
 Cartesian Forces:  Max     0.000234106 RMS     0.000097342
 Leave Link  716 at Wed Dec 29 11:01:32 2021, MaxMem=   131072000 cpu:               0.3 elap:               0.1
 (Enter /public/scc/g16/g16/l103.exe)

 GradGradGradGradGradGradGradGradGradGradGradGradGradGradGradGradGradGrad
 Berny optimization.
 Using GEDIIS/GDIIS optimizer.
 FormGI is forming the generalized inverse of G from B-inverse, IUseBI=4.
 Internal  Forces:  Max     0.000168892 RMS     0.000059678
 Search for a local minimum.
 Step number   3 out of a maximum of   46
 All quantities printed in internal units (Hartrees-Bohrs-Radians)
 RMS Force = .59678D-04 SwitMx=.10000D-02 MixMth= 2
 Mixed Optimization -- En-DIIS/RFO-DIIS
 Swapping is turned off.
 Update second derivatives using D2CorX and points    1    2    3
 DE= -4.15D-06 DEPred=-3.45D-06 R= 1.20D+00
 TightC=F SS=  1.41D+00  RLast= 1.41D-02 DXNew= 5.0454D-01 4.2429D-02
 Trust test= 1.20D+00 RLast= 1.41D-02 DXMaxT set to 3.00D-01
 ITU=  1  1  0
     Eigenvalues ---    0.00835   0.00931   0.02142   0.07062   0.07212
     Eigenvalues ---    0.07604   0.07623   0.11220   0.15999   0.16000
     Eigenvalues ---    0.16000   0.16000   0.16264   0.16854   0.23660
     Eigenvalues ---    0.32768   0.33106   0.34279   0.34285   0.34500
     Eigenvalues ---    0.34539   0.37279   0.40831   0.44961
 En-DIIS/RFO-DIIS/Sim-DIIS IScMMF=       -3 using points:     3    2    1
 RFO step:  Lambda=-1.35967480D-06.
 NNeg= 0 NGDIIS= 3 SimSw=  2.50D-03 Rises=F DC= -4.15D-06 SmlDif=  1.00D-05
 NRisDI= 0 DoIntr=F SqrtH=F CThrHd= 10.0 CDAdj=  3.0
 RMS Error=  0.1529313585D-02 NUsed= 3 OKEnD=F EnDIS=F
 InvSVX:  RCond= 1.56D-05 Info=           0 Equed=N FErr=  5.67D-15 BErr=  8.95D-17
 DidBck=F Rises=F RFO-DIIS coefs:    1.59446   -0.64663    0.05217
 Iteration  1 RMS(Cart)=  0.00108804 RMS(Int)=  0.00000278
 Iteration  2 RMS(Cart)=  0.00000150 RMS(Int)=  0.00000231
 Iteration  3 RMS(Cart)=  0.00000000 RMS(Int)=  0.00000231
 ITry= 1 IFail=0 DXMaxC= 3.82D-03 DCOld= 1.00D+10 DXMaxT= 3.00D-01 DXLimC= 3.00D+00 Rises=F
 Variable       Old X    -DE/DX   Delta X   Delta X   Delta X     New X
                                 (Linear)    (Quad)   (Total)
    R1        2.74576  -0.00017   0.00045  -0.00120  -0.00074   2.74502
    R2        2.74576  -0.00017   0.00045  -0.00120  -0.00074   2.74502
    R3        1.91549  -0.00012  -0.00027  -0.00015  -0.00041   1.91508
    R4        2.07009   0.00001  -0.00005   0.00010   0.00005   2.07014
    R5        2.06604  -0.00004  -0.00009  -0.00003  -0.00013   2.06592
    R6        2.08819   0.00005   0.00029  -0.00006   0.00022   2.08841
    R7        2.07009   0.00001  -0.00005   0.00010   0.00005   2.07014
[...]
     32  0.133487D-02  0.796550D-03 -0.125715D-02 -0.741304D-03 -0.127962D-02
     33  0.180069D-02  0.133487D-02 -0.187756D-02 -0.133007D-02 -0.179589D-02
     34 -0.187756D-02 -0.125715D-02  0.159995D-02  0.119882D-02  0.181923D-02
     35 -0.179589D-02 -0.127962D-02  0.181923D-02  0.153229D-02  0.204856D-02
     36 -0.133007D-02 -0.741304D-03  0.119882D-02  0.943522D-03  0.153229D-02
               31            32            33            34            35 
     31  0.184287D-01
     32 -0.636600D-03  0.190448D-01
     33 -0.286752D-03 -0.956342D-03  0.181529D-01
     34  0.839793D-02 -0.100612D-01 -0.104391D-01  0.174287D-01
     35 -0.106673D-01  0.962019D-02 -0.111087D-01 -0.103041D-02  0.192571D-01
     36 -0.103175D-01 -0.103809D-01  0.800055D-02 -0.140835D-02 -0.147176D-02
               36 
     36  0.169097D-01
 Leave Link  716 at Wed Dec 29 11:02:50 2021, MaxMem=   131072000 cpu:               2.6 elap:               0.5
 (Enter /public/scc/g16/g16/l103.exe)

 GradGradGradGradGradGradGradGradGradGradGradGradGradGradGradGradGradGrad
 Berny optimization.
 Red2BG is reusing G-inverse.
 Internal  Forces:  Max     0.000025592 RMS     0.000007091
 Search for a local minimum.
 Step number   1 out of a maximum of    2
 All quantities printed in internal units (Hartrees-Bohrs-Radians)
 Second derivative matrix not updated -- analytic derivatives used.
 ITU=  0
     Eigenvalues ---    0.00375   0.00381   0.02073   0.06256   0.06277
     Eigenvalues ---    0.06340   0.06380   0.10656   0.12898   0.13562
     Eigenvalues ---    0.15857   0.16678   0.17272   0.18364   0.24422
     Eigenvalues ---    0.31184   0.31280   0.33869   0.33964   0.34526
     Eigenvalues ---    0.34630   0.38274   0.39034   0.46260
 Angle between quadratic step and forces=  70.88 degrees.
 Linear search not attempted -- first point.
 Iteration  1 RMS(Cart)=  0.00039584 RMS(Int)=  0.00000008
 Iteration  2 RMS(Cart)=  0.00000011 RMS(Int)=  0.00000000
 ITry= 1 IFail=0 DXMaxC= 1.01D-03 DCOld= 1.00D+10 DXMaxT= 3.00D-01 DXLimC= 3.00D+00 Rises=F
 Variable       Old X    -DE/DX   Delta X   Delta X   Delta X     New X
                                 (Linear)    (Quad)   (Total)
    R1        2.74478   0.00001   0.00000   0.00005   0.00005   2.74483
    R2        2.74478   0.00001   0.00000   0.00005   0.00005   2.74483
    R3        1.91508   0.00001   0.00000   0.00002   0.00002   1.91510
    R4        2.07017  -0.00000   0.00000  -0.00000  -0.00000   2.07017
    R5        2.06598  -0.00001   0.00000  -0.00002  -0.00002   2.06596
    R6        2.08843   0.00000   0.00000  -0.00000  -0.00000   2.08842
    R7        2.07017  -0.00000   0.00000  -0.00000  -0.00000   2.07017
    R8        2.08843   0.00000   0.00000  -0.00000  -0.00000   2.08842
    R9        2.06598  -0.00001   0.00000  -0.00002  -0.00002   2.06596
    A1        1.97109  -0.00003   0.00000  -0.00013  -0.00013   1.97097
    A2        1.91880   0.00001   0.00000  -0.00004  -0.00004   1.91876
    A3        1.91880   0.00001   0.00000  -0.00004  -0.00004   1.91876
    A4        1.90694   0.00000   0.00000   0.00003   0.00003   1.90696
    A5        1.91629  -0.00002   0.00000  -0.00009  -0.00009   1.91620
    A6        1.98621   0.00000   0.00000  -0.00004  -0.00004   1.98617
    A7        1.87924   0.00001   0.00000   0.00003   0.00003   1.87927
    A8        1.87838   0.00000   0.00000   0.00004   0.00004   1.87842
    A9        1.89359   0.00001   0.00000   0.00004   0.00004   1.89363
   A10        1.90694   0.00000   0.00000   0.00003   0.00003   1.90696
   A11        1.98621   0.00000   0.00000  -0.00004  -0.00004   1.98617
   A12        1.91629  -0.00002   0.00000  -0.00009  -0.00009   1.91620
   A13        1.87838   0.00000   0.00000   0.00004   0.00004   1.87842
   A14        1.87924   0.00001   0.00000   0.00003   0.00003   1.87927
   A15        1.89359   0.00001   0.00000   0.00004   0.00004   1.89363
    D1        1.13460   0.00001   0.00000   0.00073   0.00073   1.13533
    D2       -3.09129   0.00001   0.00000   0.00073   0.00073  -3.09056
    D3       -0.96515   0.00000   0.00000   0.00068   0.00068  -0.96447
    D4       -2.99852   0.00000   0.00000   0.00055   0.00055  -2.99797
    D5       -0.94123   0.00000   0.00000   0.00055   0.00055  -0.94068
    D6        1.18491  -0.00000   0.00000   0.00050   0.00050   1.18541
    D7       -1.13460  -0.00001   0.00000  -0.00073  -0.00073  -1.13533
    D8        0.96515  -0.00000   0.00000  -0.00068  -0.00068   0.96447
    D9        3.09129  -0.00001   0.00000  -0.00073  -0.00073   3.09056
   D10        2.99852  -0.00000   0.00000  -0.00055  -0.00055   2.99797
   D11       -1.18491   0.00000   0.00000  -0.00050  -0.00050  -1.18541
   D12        0.94123  -0.00000   0.00000  -0.00055  -0.00055   0.94068
         Item               Value     Threshold  Converged?
 Maximum Force            0.000026     0.000450     YES
 RMS     Force            0.000007     0.000300     YES
 Maximum Displacement     0.001010     0.001800     YES
 RMS     Displacement     0.000396     0.001200     YES
 Predicted change in Energy=-1.535398D-08
 Optimization completed.
    -- Stationary point found.
                           ----------------------------
                           !   Optimized Parameters   !
                           ! (Angstroms and Degrees)  !
 --------------------------                            --------------------------
 ! Name  Definition              Value          Derivative Info.                !
 --------------------------------------------------------------------------------
 ! R1    R(1,2)                  1.4525         -DE/DX =    0.0                 !
 ! R2    R(1,3)                  1.4525         -DE/DX =    0.0                 !
 ! R3    R(1,4)                  1.0134         -DE/DX =    0.0                 !
 ! R4    R(2,5)                  1.0955         -DE/DX =    0.0                 !
 ! R5    R(2,6)                  1.0933         -DE/DX =    0.0                 !
 ! R6    R(2,7)                  1.1051         -DE/DX =    0.0                 !
 ! R7    R(3,8)                  1.0955         -DE/DX =    0.0                 !
 ! R8    R(3,9)                  1.1051         -DE/DX =    0.0                 !
 ! R9    R(3,10)                 1.0933         -DE/DX =    0.0                 !
 ! A1    A(2,1,3)              112.9353         -DE/DX =    0.0                 !
 ! A2    A(2,1,4)              109.9391         -DE/DX =    0.0                 !
 ! A3    A(3,1,4)              109.9391         -DE/DX =    0.0                 !
 ! A4    A(1,2,5)              109.2594         -DE/DX =    0.0                 !
 ! A5    A(1,2,6)              109.7953         -DE/DX =    0.0                 !
 ! A6    A(1,2,7)              113.8014         -DE/DX =    0.0                 !
 ! A7    A(5,2,6)              107.6726         -DE/DX =    0.0                 !
 ! A8    A(5,2,7)              107.6233         -DE/DX =    0.0                 !
 ! A9    A(6,2,7)              108.4948         -DE/DX =    0.0                 !
 ! A10   A(1,3,8)              109.2594         -DE/DX =    0.0                 !
 ! A11   A(1,3,9)              113.8014         -DE/DX =    0.0                 !
 ! A12   A(1,3,10)             109.7953         -DE/DX =    0.0                 !
 ! A13   A(8,3,9)              107.6233         -DE/DX =    0.0                 !
 ! A14   A(8,3,10)             107.6726         -DE/DX =    0.0                 !
 ! A15   A(9,3,10)             108.4948         -DE/DX =    0.0                 !
 ! D1    D(3,1,2,5)             65.0078         -DE/DX =    0.0                 !
 ! D2    D(3,1,2,6)           -177.1181         -DE/DX =    0.0                 !
 ! D3    D(3,1,2,7)            -55.2991         -DE/DX =    0.0                 !
 ! D4    D(4,1,2,5)           -171.8027         -DE/DX =    0.0                 !
 ! D5    D(4,1,2,6)            -53.9286         -DE/DX =    0.0                 !
 ! D6    D(4,1,2,7)             67.8904         -DE/DX =    0.0                 !
 ! D7    D(2,1,3,8)            -65.0078         -DE/DX =    0.0                 !
 ! D8    D(2,1,3,9)             55.2991         -DE/DX =    0.0                 !
 ! D9    D(2,1,3,10)           177.1181         -DE/DX =    0.0                 !
 ! D10   D(4,1,3,8)            171.8027         -DE/DX =    0.0                 !
 ! D11   D(4,1,3,9)            -67.8904         -DE/DX =    0.0                 !
 ! D12   D(4,1,3,10)            53.9286         -DE/DX =    0.0                 !
 --------------------------------------------------------------------------------
 GradGradGradGradGradGradGradGradGradGradGradGradGradGradGradGradGradGrad

 Leave Link  103 at Wed Dec 29 11:02:50 2021, MaxMem=   131072000 cpu:               0.1 elap:               0.0
 (Enter /public/scc/g16/g16/l9999.exe)

 ----------------------------------------------------------------------

 Electric dipole moment (input orientation):
 (Debye = 10**-18 statcoulomb cm , SI units = C m)
                  (au)            (Debye)         (10**-30 SI)
   Tot        0.441190D+00      0.112139D+01      0.374057D+01
   x          0.000000D+00      0.000000D+00      0.000000D+00
   y         -0.946745D-01     -0.240638D+00     -0.802683D+00
   z          0.430913D+00      0.109527D+01      0.365343D+01

 Dipole polarizability, Alpha (input orientation).
 (esu units = cm**3 , SI units = C**2 m**2 J**-1)
 Alpha(0;0):
               (au)            (10**-24 esu)      (10**-40 SI)
   iso        0.348676D+02      0.516685D+01      0.574889D+01
   aniso      0.488615D+01      0.724053D+00      0.805618D+00
   xx         0.376903D+02      0.558512D+01      0.621429D+01
   yx         0.000000D+00      0.000000D+00      0.000000D+00
   yy         0.341075D+02      0.505421D+01      0.562357D+01
   zx         0.000000D+00      0.000000D+00      0.000000D+00
   zy        -0.124840D+01     -0.184994D+00     -0.205834D+00
   zz         0.328051D+02      0.486121D+01      0.540882D+01

 ----------------------------------------------------------------------

 Dipole orientation:
     7          0.00000003          0.98081439         -0.48973687
     6          2.28797535         -0.40353155          0.12877755
     6         -2.28797522         -0.40353168          0.12877749
     1         -0.00000003          2.67480423          0.40353244
     1          2.40105377         -2.09889826         -1.05383029
     1          3.94366394          0.76101637         -0.28448785
     1          2.38961741         -1.01567754          2.12288608
     1         -2.40105335         -2.09889854         -1.05383007
     1         -2.38961746         -1.01567739          2.12288612
     1         -3.94366391          0.76101601         -0.28448823

 Electric dipole moment (dipole orientation):
 (Debye = 10**-18 statcoulomb cm , SI units = C m)
                  (au)            (Debye)         (10**-30 SI)
   Tot        0.441190D+00      0.112139D+01      0.374057D+01
   x          0.000000D+00      0.000000D+00      0.000000D+00
   y          0.000000D+00      0.000000D+00      0.000000D+00
   z          0.441190D+00      0.112139D+01      0.374057D+01

 Dipole polarizability, Alpha (dipole orientation).
 (esu units = cm**3 , SI units = C**2 m**2 J**-1)
 Alpha(0;0):
               (au)            (10**-24 esu)      (10**-40 SI)
   iso        0.348676D+02      0.516685D+01      0.574889D+01
   aniso      0.488615D+01      0.724053D+00      0.805618D+00
   xx         0.376903D+02      0.558512D+01      0.621429D+01
   yx         0.000000D+00      0.000000D+00      0.000000D+00
   yy         0.335242D+02      0.496778D+01      0.552740D+01
   zx         0.000000D+00      0.000000D+00      0.000000D+00
   zy        -0.140641D+01     -0.208408D+00     -0.231885D+00
   zz         0.333883D+02      0.494764D+01      0.550499D+01

 ----------------------------------------------------------------------
 1\1\GINC-NODE01\Freq\RwB97XD\6-31++G(d,p)\C2H7N1\JIANGSHUAI\29-Dec-202
 1\0\\#P Geom=AllCheck Guess=TCheck SCRF=Check GenChk RwB97XD/6-31++G(d
 ,p) Freq\\aaaaa\\0,1\N,0.0000000868,0.5625459676,-0.1417436145\C,1.210
 7443995,-0.2231886239,0.0207358854\C,-1.2107443633,-0.2231885932,0.020
 7349843\H,-0.0000001453,1.336648676,0.5123041315\H,1.2705831772,-0.965
 147014,-0.7830127425\H,2.0868971246,0.4256361926,-0.0606192172\H,1.264
 5307003,-0.7660179488,0.9818779653\H,-1.2705824759,-0.965147087,-0.783
 0135614\H,-1.2645314824,-0.7660177801,0.981877104\H,-2.0868970283,0.42
 56362107,-0.0606209348\\Version=ES64L-G16RevA.03\State=1-A\HF=-135.134
 5073\RMSD=7.435e-10\RMSF=9.667e-06\ZeroPoint=0.093319\Thermal=0.09769\
 Dipole=-0.0000002,-0.0946745,0.4309127\DipoleDeriv=-0.6521555,0.,0.,-0
 .0000001,-0.5665015,0.2452446,0.,0.2490244,-0.4897181,0.3967047,-0.172
 3302,0.075588,-0.2002471,0.3343195,-0.1163453,-0.0162084,-0.0969681,0.
 3625244,0.3967048,0.1723302,-0.075588,0.2002472,0.3343194,-0.1163452,0
 .0162084,-0.096968,0.3625244,0.0753549,0.,0.,0.,0.1664814,-0.1006997,0
 .,-0.2013694,0.1417242,0.0473129,-0.009465,-0.0259195,0.0670605,-0.053
 4011,-0.0926532,0.0161622,-0.1202629,-0.0701043,-0.1248861,-0.0633166,
 0.0058122,-0.120497,-0.0186695,0.0103395,0.0006776,0.027706,0.0761565,
 -0.0307312,0.0187044,0.0248494,0.1086014,-0.0622389,0.1263865,-0.08123
 05,0.1656975,-0.1945796,0.0473129,0.0094651,0.0259196,-0.0670604,-0.05
 34011,-0.0926532,-0.0161621,-0.1202629,-0.0701043,-0.0307313,-0.018704
 6,-0.0248492,-0.1086015,-0.0622389,0.1263864,0.0812307,0.1656974,-0.19
 45796,-0.1248861,0.0633165,-0.0058123,0.120497,-0.0186694,0.0103396,-0
 .0006778,0.0277061,0.0761565\Polar=37.6902669,0.0000003,34.1074914,0.0
 000015,-1.2484027,32.8050529\Quadrupole=0.8473463,0.076609,-0.9239553,
 -0.0000006,0.0000007,1.7057926\PG=C01 [X(C2H7N1)]\NImag=0\\0.54028686,
 -0.00000008,0.59183785,0.00000008,0.20719380,0.32061359,-0.19663905,0.
 06052938,0.00002164,0.54972620,0.07749174,-0.14586563,-0.01412606,0.05
 173695,0.57011553,-0.03971473,0.00752868,-0.06974520,-0.01193650,0.026
 57901,0.55339920,-0.19663908,-0.06052938,-0.00002173,-0.03911322,-0.01
 790107,0.00765351,0.54972618,-0.07749173,-0.14586562,-0.01412611,0.017
 90107,0.01111043,0.00283353,-0.05173695,0.57011555,0.03971463,0.007528
 63,-0.06974518,-0.00765354,0.00283351,-0.00451202,0.01193650,0.0265790
 1,0.55339923,-0.06006845,0.00000008,0.00000005,-0.00128016,0.02737088,
 0.02348063,-0.00128015,-0.02737089,-0.02348064,0.07304802,0.00000007,-
 0.26062224,-0.18961066,0.00152872,-0.01493946,-0.01441989,-0.00152871,
 -0.01493946,-0.01441989,-0.00000008,0.28910263,0.00000005,-0.23639102,
 -0.19755875,-0.00527477,0.01025422,-0.00074877,0.00527477,0.01025420,-
 0.00074878,-0.00000004,0.21499941,0.19489453,-0.00509635,0.02651978,0.
 02085834,-0.04901236,0.00044459,0.00293277,0.00171328,0.00175861,0.002
 04308,-0.00572097,0.00299370,0.00090642,0.05512277,0.00465585,-0.01930
 606,-0.01306275,0.00474010,-0.16381061,-0.12840373,-0.00122179,0.00064
 291,0.00064059,0.00418955,-0.00004914,-0.00022294,-0.01392293,0.182410
 33,0.00110722,0.00320623,0.00714530,0.00658593,-0.13295137,-0.19726581
 ,-0.00035417,0.00008173,0.00066150,-0.00093453,0.00172055,0.00087575,-
 0.00674064,0.14309293,0.20788182,-0.02671130,-0.01736564,-0.00035790,-
 0.21407169,-0.12646050,0.01597794,-0.00367597,0.00561185,-0.00005147,0
 .00013205,-0.00028750,0.00082149,0.00249626,0.00149251,-0.00029481,0.2
 4118831,0.02064826,0.01369351,-0.00053519,-0.13528882,-0.15379994,0.01
 255623,0.00291349,-0.00171905,-0.00013660,-0.00046362,0.00092138,-0.00
 035026,-0.01623555,-0.01170504,0.00367659,0.13772595,0.16007416,-0.003
 45569,-0.00323941,-0.00059660,0.01731656,0.01399993,-0.05089901,-0.000
 21736,0.00032238,0.00027021,0.00057080,0.00010870,0.00013360,-0.020042
 96,-0.01411420,0.00287768,-0.01651899,-0.01499568,0.04854945,-0.011662
 49,0.02043951,-0.02727989,-0.05240052,-0.00111400,-0.00040619,0.004753
 48,0.00419813,-0.00400417,0.00037929,-0.00099964,-0.00050427,0.0005602
 2,-0.00093411,-0.00003111,0.00174612,-0.01062245,0.02281927,0.05613129
 ,0.01223341,-0.01412964,0.01893247,-0.00212211,-0.10179067,0.09464047,
 -0.00266642,0.00005648,-0.00181828,-0.00002558,-0.00017298,0.00101480,
 -0.00040572,0.01111191,-0.01898612,0.00019939,-0.00827341,0.01789446,-
 0.00896271,0.11209947,-0.00770225,0.00710314,0.00166906,0.00133678,0.0
 9366457,-0.23334130,0.00096763,-0.00065791,0.00218120,-0.00052154,-0.0
 0010374,0.00107154,0.00115674,0.01207012,-0.02154304,0.00023372,-0.000
 34677,-0.00135944,0.00660100,-0.11093204,0.25218548,-0.00509633,-0.026
 51979,-0.02085835,0.00171328,-0.00175861,-0.00204308,-0.04901235,-0.00
 044448,-0.00293265,-0.00572097,-0.00299370,-0.00090642,-0.00007150,0.0
 0076678,0.00074339,0.00033364,0.00011232,0.00021066,-0.00032500,0.0002
 7339,0.00015969,0.05512276,-0.00465584,-0.01930606,-0.01306275,0.00122
 179,0.00064291,0.00064059,-0.00474000,-0.16381068,-0.12840377,-0.00418
 955,-0.00004914,-0.00022294,-0.00076678,0.00046865,-0.00016325,0.00003
 545,0.00013109,0.00028363,-0.00026949,0.00010595,-0.00012039,0.0139228
 1,0.18241039,-0.00110723,0.00320621,0.00714529,0.00035417,0.00008172,0
 .00066150,-0.00658581,-0.13295141,-0.19726580,0.00093453,0.00172054,0.
 00087575,-0.00074339,-0.00016325,-0.00017913,-0.00013532,0.00036211,0.
 00015765,0.00021662,-0.00003939,-0.00061172,0.00674052,0.14309297,0.20
 788182,-0.01166252,-0.02043951,0.02727988,0.00475348,-0.00419813,0.004
 00417,-0.05240052,0.00111392,0.00040634,0.00037929,0.00099964,0.000504
 27,-0.00032500,0.00026949,-0.00021662,0.00016912,0.00027494,-0.0005046
 8,0.00064847,0.00146030,-0.00208404,0.00056022,0.00093410,0.00003113,0
 .05613131,-0.01223342,-0.01412963,0.01893246,0.00266642,0.00005648,-0.
 00181828,0.00212203,-0.10179064,0.09464044,0.00002558,-0.00017298,0.00
 101480,-0.00027339,0.00010595,-0.00003939,-0.00001604,0.00003668,-0.00
 022915,-0.00146030,0.00095620,-0.00047722,0.00040573,0.01111191,-0.018
 98613,0.00896280,0.11209944,0.00770225,0.00710312,0.00166908,-0.000967
 62,-0.00065791,0.00218120,-0.00133663,0.09366454,-0.23334132,0.0005215
 4,-0.00010374,0.00107154,-0.00015969,-0.00012039,-0.00061172,0.0001477
 3,-0.00019976,0.00032113,0.00208404,-0.00047722,-0.00057291,-0.0011567
 2,0.01207012,-0.02154304,-0.00660117,-0.11093201,0.25218550,-0.0267113
 0,0.01736564,0.00035788,-0.00367597,-0.00561185,0.00005146,-0.21407165
 ,0.12646048,-0.01597809,0.00013205,0.00028749,-0.00082149,0.00033364,-
 0.00003545,0.00013532,-0.00160654,0.00093548,-0.00017761,0.00016912,0.
 00001604,-0.00014773,0.00249625,-0.00149250,0.00029481,0.00174614,-0.0
 0019941,-0.00023371,0.24118827,-0.02064826,0.01369351,-0.00053520,-0.0
 0291349,-0.00171905,-0.00013660,0.13528880,-0.15379993,0.01255635,0.00
 046362,0.00092138,-0.00035026,-0.00011232,0.00013109,0.00036211,-0.000
 93548,0.00064060,-0.00003067,-0.00027494,0.00003668,-0.00019976,0.0162
 3556,-0.01170504,0.00367661,0.01062244,-0.00827341,-0.00034676,-0.1377
 2593,0.16007415,0.00345567,-0.00323940,-0.00059659,0.00021736,0.000322
 38,0.00027021,-0.01731671,0.01400005,-0.05089904,-0.00057080,0.0001087
 0,0.00013360,-0.00021066,0.00028363,0.00015765,0.00017761,-0.00003067,
 0.00054533,0.00050468,-0.00022915,0.00032113,0.02004296,-0.01411420,0.
 00287770,-0.02281927,0.01789446,-0.00135947,0.01651917,-0.01499581,0.0
 4854949\\0.,-0.00002389,0.00002277,-0.00000821,0.00002228,-0.00000819,
 0.00000822,0.00002227,-0.00000820,0.,-0.00000911,-0.00000441,-0.000000
 96,-0.00000275,0.00000176,0.00001102,-0.00000517,-0.00000174,0.0000025
 8,0.00000213,-0.00000101,0.00000096,-0.00000274,0.00000177,-0.00000258
 ,0.00000213,-0.00000101,-0.00001102,-0.00000517,-0.00000174\\\@


 FROM THE ASHES OF OUR DESPAIR GROW THE FLOWERS OF TOMORROW.
 Job cpu time:       0 days  0 hours  5 minutes 48.2 seconds.
 Elapsed time:       0 days  0 hours  0 minutes 40.6 seconds.
 File lengths (MBytes):  RWF=     13 Int=      0 D2E=      0 Chk=      3 Scr=      1
 Normal termination of Gaussian 16 at Wed Dec 29 11:02:51 2021.
