 Entering Gaussian System, Link 0=g16
 Initial command:
 /public/scc/g16/g16/l1.exe "/tmp/248980.node01/Gau-32726.inp" -scrdir="/tmp/248980.node01/"
 Entering Link 1 = /public/scc/g16/g16/l1.exe PID=     32727.
  
 Copyright (c) 1988,1990,1992,1993,1995,1998,2003,2009,2016,
            Gaussian, Inc.  All Rights Reserved.
  
 This is part of the Gaussian(R) 16 program.  It is based on
 the Gaussian(R) 09 system (copyright 2009, Gaussian, Inc.),
 the Gaussian(R) 03 system (copyright 2003, Gaussian, Inc.),
 the Gaussian(R) 98 system (copyright 1998, Gaussian, Inc.),
 the Gaussian(R) 94 system (copyright 1995, Gaussian, Inc.),
 the Gaussian 92(TM) system (copyright 1992, Gaussian, Inc.),
 the Gaussian 90(TM) system (copyright 1990, Gaussian, Inc.),
 the Gaussian 88(TM) system (copyright 1988, Gaussian, Inc.),
 the Gaussian 86(TM) system (copyright 1986, Carnegie Mellon
 University), and the Gaussian 82(TM) system (copyright 1983,
 Carnegie Mellon University). Gaussian is a federally registered
 trademark of Gaussian, Inc.
  
 This software contains proprietary and confidential information,
 including trade secrets, belonging to Gaussian, Inc.
  
 This software is provided under written license and may be
 used, copied, transmitted, or stored only in accord with that
 written license.
  
 The following legend is applicable only to US Government
 contracts under FAR:
  
                    RESTRICTED RIGHTS LEGEND
  
 Use, reproduction and disclosure by the US Government is
 subject to restrictions as set forth in subparagraphs (a)
 and (c) of the Commercial Computer Software - Restricted
 Rights clause in FAR 52.227-19.
  
 Gaussian, Inc.
 340 Quinnipiac St., Bldg. 40, Wallingford CT 06492
  
  
 ---------------------------------------------------------------
 Warning -- This program may not be used in any manner that
 competes with the business of Gaussian, Inc. or will provide
 assistance to any competitor of Gaussian, Inc.  The licensee
 of this program is prohibited from giving any competitor of
 Gaussian, Inc. access to this program.  By using this program,
 the user acknowledges that Gaussian, Inc. is engaged in the
 business of creating and licensing software in the field of
 computational chemistry and represents and warrants to the
 licensee that it is not a competitor of Gaussian, Inc. and that
 it will not use this program in any manner prohibited above.
 ---------------------------------------------------------------
  

 Cite this work as:
 Gaussian 16, Revision A.03,
 M. J. Frisch, G. W. Trucks, H. B. Schlegel, G. E. Scuseria, 
 M. A. Robb, J. R. Cheeseman, G. Scalmani, V. Barone, 
 G. A. Petersson, H. Nakatsuji, X. Li, M. Caricato, A. V. Marenich, 
 J. Bloino, B. G. Janesko, R. Gomperts, B. Mennucci, H. P. Hratchian, 
 J. V. Ortiz, A. F. Izmaylov, J. L. Sonnenberg, D. Williams-Young, 
 F. Ding, F. Lipparini, F. Egidi, J. Goings, B. Peng, A. Petrone, 
 T. Henderson, D. Ranasinghe, V. G. Zakrzewski, J. Gao, N. Rega, 
 G. Zheng, W. Liang, M. Hada, M. Ehara, K. Toyota, R. Fukuda, 
 J. Hasegawa, M. Ishida, T. Nakajima, Y. Honda, O. Kitao, H. Nakai, 
 T. Vreven, K. Throssell, J. A. Montgomery, Jr., J. E. Peralta, 
 F. Ogliaro, M. J. Bearpark, J. J. Heyd, E. N. Brothers, K. N. Kudin, 
 V. N. Staroverov, T. A. Keith, R. Kobayashi, J. Normand, 
 K. Raghavachari, A. P. Rendell, J. C. Burant, S. S. Iyengar, 
 J. Tomasi, M. Cossi, J. M. Millam, M. Klene, C. Adamo, R. Cammi, 
 J. W. Ochterski, R. L. Martin, K. Morokuma, O. Farkas, 
 J. B. Foresman, and D. J. Fox, Gaussian, Inc., Wallingford CT, 2016.
 
 ******************************************
 Gaussian 16:  ES64L-G16RevA.03 25-Dec-2016
                29-Dec-2021 
 ******************************************
 %chk=SA.chk
 %nproc=8
 Will use up to    8 processors via shared memory.
 %mem=1000MB
 -------------------------------
 #p wB97XD/6-31++G(d,p) opt freq
 -------------------------------
 1/18=20,19=15,26=3,38=1/1,3;
 2/9=110,12=2,17=6,18=5,40=1/2;
 3/5=1,6=6,7=1111,11=2,25=1,30=1,71=1,74=-58/1,2,3;
 4//1;
 5/5=2,38=5/2;
 6/7=2,8=2,9=2,10=2,28=1/1;
 7//1,2,3,16;
 1/18=20,19=15,26=3/3(2);
 2/9=110/2;
 99//99;
 2/9=110/2;
 3/5=1,6=6,7=1111,11=2,25=1,30=1,71=1,74=-58/1,2,3;
 4/5=5,16=3,69=1/1;
 5/5=2,38=5/2;
 7//1,2,3,16;
 1/18=20,19=15,26=3/3(-5);
 2/9=110/2;
 6/7=2,8=2,9=2,10=2,19=2,28=1/1;
 99/9=1/99;
 Leave Link    1 at Wed Dec 29 11:03:33 2021, MaxMem=   131072000 cpu:               0.2 elap:               0.0
 (Enter /public/scc/g16/g16/l101.exe)
 -----
 aaaaa
 -----
 Symbolic Z-matrix:
 Charge =  0 Multiplicity = 1
 S                     0.0001    0.        0.1773 
 O                    -1.2728   -0.0647   -0.866 
 O                     0.0022   -1.303     0.8505 
 O                     1.2731    0.0646   -0.8659 
 O                    -0.0024    1.303     0.8506 
 H                    -1.4382    0.8527   -1.155 
 H                     1.438    -0.8527   -1.1552 
 
 ITRead=  0  0  0  0  0  0  0
 MicOpt= -1 -1 -1 -1 -1 -1 -1
 NAtoms=      7 NQM=        7 NQMF=       0 NMMI=      0 NMMIF=      0
                NMic=       0 NMicF=      0.
                    Isotopes and Nuclear Properties:
 (Nuclear quadrupole moments (NQMom) in fm**2, nuclear magnetic moments (NMagM)
  in nuclear magnetons)

  Atom         1           2           3           4           5           6           7
 IAtWgt=          32          16          16          16          16           1           1
 AtmWgt=  31.9720718  15.9949146  15.9949146  15.9949146  15.9949146   1.0078250   1.0078250
 NucSpn=           0           0           0           0           0           1           1
 AtZEff=  -0.0000000  -0.0000000  -0.0000000  -0.0000000  -0.0000000  -0.0000000  -0.0000000
 NQMom=    0.0000000   0.0000000   0.0000000   0.0000000   0.0000000   0.0000000   0.0000000
 NMagM=    0.0000000   0.0000000   0.0000000   0.0000000   0.0000000   2.7928460   2.7928460
 AtZNuc=  16.0000000   8.0000000   8.0000000   8.0000000   8.0000000   1.0000000   1.0000000
 Leave Link  101 at Wed Dec 29 11:03:33 2021, MaxMem=   131072000 cpu:               0.6 elap:               0.1
 (Enter /public/scc/g16/g16/l103.exe)

 GradGradGradGradGradGradGradGradGradGradGradGradGradGradGradGradGradGrad
 Berny optimization.
 Initialization pass.
                           ----------------------------
                           !    Initial Parameters    !
                           ! (Angstroms and Degrees)  !
 --------------------------                            --------------------------
 ! Name  Definition              Value          Derivative Info.                !
 --------------------------------------------------------------------------------
 ! R1    R(1,2)                  1.6471         estimate D2E/DX2                !
 ! R2    R(1,3)                  1.4666         estimate D2E/DX2                !
 ! R3    R(1,4)                  1.6471         estimate D2E/DX2                !
 ! R4    R(1,5)                  1.4667         estimate D2E/DX2                !
 ! R5    R(2,6)                  0.976          estimate D2E/DX2                !
 ! R6    R(4,7)                  0.9759         estimate D2E/DX2                !
 ! A1    A(2,1,3)              104.8893         estimate D2E/DX2                !
 ! A2    A(2,1,4)              101.3995         estimate D2E/DX2                !
 ! A3    A(2,1,5)              108.9268         estimate D2E/DX2                !
 ! A4    A(3,1,4)              108.9324         estimate D2E/DX2                !
 ! A5    A(3,1,5)              125.35           estimate D2E/DX2                !
 ! A6    A(4,1,5)              104.9054         estimate D2E/DX2                !
 ! A7    A(1,2,6)              106.3565         estimate D2E/DX2                !
 ! A8    A(1,4,7)              106.3492         estimate D2E/DX2                !
 ! D1    D(3,1,2,6)            165.7864         estimate D2E/DX2                !
 ! D2    D(4,1,2,6)            -80.8796         estimate D2E/DX2                !
 ! D3    D(5,1,2,6)             29.3959         estimate D2E/DX2                !
 ! D4    D(2,1,4,7)            -80.8395         estimate D2E/DX2                !
 ! D5    D(3,1,4,7)             29.4202         estimate D2E/DX2                !
 ! D6    D(5,1,4,7)            165.8274         estimate D2E/DX2                !
 --------------------------------------------------------------------------------
 Trust Radius=3.00D-01 FncErr=1.00D-07 GrdErr=1.00D-06 EigMax=2.50D+02 EigMin=1.00D-04
 Number of steps in this run=     30 maximum allowed number of steps=    100.
 GradGradGradGradGradGradGradGradGradGradGradGradGradGradGradGradGradGrad

 Leave Link  103 at Wed Dec 29 11:03:33 2021, MaxMem=   131072000 cpu:               0.1 elap:               0.0
 (Enter /public/scc/g16/g16/l202.exe)
                          Input orientation:                          
 ---------------------------------------------------------------------
 Center     Atomic      Atomic             Coordinates (Angstroms)
 Number     Number       Type             X           Y           Z
 ---------------------------------------------------------------------
      1         16           0        0.000100    0.000000    0.177300
      2          8           0       -1.272800   -0.064700   -0.866000
      3          8           0        0.002200   -1.303000    0.850500
      4          8           0        1.273100    0.064600   -0.865900
      5          8           0       -0.002400    1.303000    0.850600
      6          1           0       -1.438200    0.852700   -1.155000
      7          1           0        1.438000   -0.852700   -1.155200
 ---------------------------------------------------------------------
                    Distance matrix (angstroms):
                    1          2          3          4          5
     1  S    0.000000
     2  O    1.647099   0.000000
     3  O    1.466633   2.470908   0.000000
     4  O    1.647109   2.549181   2.536049   0.000000
     5  O    1.466679   2.535988   2.606004   2.471216   0.000000
     6  H    2.137949   0.975962   3.277777   2.838279   2.507334
     7  H    2.137805   2.837784   2.507414   0.975872   3.277961
                    6          7
     6  H    0.000000
     7  H    3.343788   0.000000
 Stoichiometry    H2O4S
 Framework group  C1[X(H2O4S)]
 Deg. of freedom    15
 Full point group                 C1      NOp   1
 Largest Abelian subgroup         C1      NOp   1
 Largest concise Abelian subgroup C1      NOp   1
                         Standard orientation:                         
 ---------------------------------------------------------------------
 Center     Atomic      Atomic             Coordinates (Angstroms)
 Number     Number       Type             X           Y           Z
 ---------------------------------------------------------------------
      1         16           0        0.000084    0.000123   -0.171696
      2          8           0        1.070424   -0.691181    0.872050
      3          8           0       -0.650985   -1.127958   -0.845903
      4          8           0       -1.071902    0.690399    0.871057
      5          8           0        0.652472    1.128645   -0.843989
      6          1           0        1.671042    0.021414    1.161823
      7          1           0       -1.672455   -0.022633    1.159585
 ---------------------------------------------------------------------
 Rotational constants (GHZ):           4.7399605           4.7328552           4.5156558
 Leave Link  202 at Wed Dec 29 11:03:33 2021, MaxMem=   131072000 cpu:               0.1 elap:               0.0
 (Enter /public/scc/g16/g16/l301.exe)
 Standard basis: 6-31++G(d,p) (6D, 7F)
 Ernie: Thresh=  0.10000D-02 Tol=  0.10000D-05 Strict=F.
 There are   111 symmetry adapted cartesian basis functions of A   symmetry.
 There are   111 symmetry adapted basis functions of A   symmetry.
   111 basis functions,   200 primitive gaussians,   111 cartesian basis functions
    25 alpha electrons       25 beta electrons
       nuclear repulsion energy       280.7128150139 Hartrees.
 IExCor= 4639 DFT=T Ex+Corr=wB97XD ExCW=0 ScaHFX=  1.000000
 ScaDFX=  1.000000  1.000000  1.000000  1.000000 ScalE2=  1.000000  1.000000
 IRadAn=      5 IRanWt=     -1 IRanGd=            0 ICorTp=0 IEmpDi=121
 HFx  wShort=  0.000000 wLong=  0.200000 cFull=  0.222036 cShort=  0.000000 cLong=  0.777964
 DFx  wShort=  0.000000 wLong=  0.200000 cFull=  0.000000 cShort=  0.000000 cLong=  1.000000
 NAtoms=    7 NActive=    7 NUniq=    7 SFac= 1.00D+00 NAtFMM=   60 NAOKFM=F Big=F
 Integral buffers will be    131072 words long.
 Raffenetti 2 integral format.
 Two-electron integral symmetry is turned on.
 R6Disp:  Grimme-D2 Dispersion energy=       -0.0013099452 Hartrees.
 Nuclear repulsion after empirical dispersion term =      280.7115050687 Hartrees.
 Leave Link  301 at Wed Dec 29 11:03:33 2021, MaxMem=   131072000 cpu:               0.3 elap:               0.1
 (Enter /public/scc/g16/g16/l302.exe)
 NPDir=0 NMtPBC=     1 NCelOv=     1 NCel=       1 NClECP=     1 NCelD=      1
         NCelK=      1 NCelE2=     1 NClLst=     1 CellRange=     0.0.
 One-electron integrals computed using PRISM.
 One-electron integral symmetry used in STVInt
 NBasis=   111 RedAO= T EigKep=  1.35D-03  NBF=   111
 NBsUse=   111 1.00D-06 EigRej= -1.00D+00 NBFU=   111
 Precomputing XC quadrature grid using
 IXCGrd= 4 IRadAn=           5 IRanWt=          -1 IRanGd=           0 AccXCQ= 0.00D+00.
 Generated NRdTot=       0 NPtTot=           0 NUsed=           0 NTot=          32
 NSgBfM=   111   111   111   111   111 MxSgAt=     7 MxSgA2=     7.
 Leave Link  302 at Wed Dec 29 11:03:33 2021, MaxMem=   131072000 cpu:               1.2 elap:               0.2
 (Enter /public/scc/g16/g16/l303.exe)
 DipDrv:  MaxL=1.
 Leave Link  303 at Wed Dec 29 11:03:33 2021, MaxMem=   131072000 cpu:               0.2 elap:               0.0
 (Enter /public/scc/g16/g16/l401.exe)
 ExpMin= 3.60D-02 ExpMax= 2.19D+04 ExpMxC= 3.30D+03 IAcc=3 IRadAn=         5 AccDes= 0.00D+00
 Harris functional with IExCor= 4639 and IRadAn=       5 diagonalized for initial guess.
 HarFok:  IExCor= 4639 AccDes= 0.00D+00 IRadAn=         5 IDoV= 1 UseB2=F ITyADJ=14
 ICtDFT=  3500011 ScaDFX=  1.000000  1.000000  1.000000  1.000000
 FoFCou: FMM=F IPFlag=           0 FMFlag=      100000 FMFlg1=           0
         NFxFlg=           0 DoJE=T BraDBF=F KetDBF=T FulRan=T
         wScrn=  0.000000 ICntrl=       500 IOpCl=  0 I1Cent=   200000004 NGrid=           0
         NMat0=    1 NMatS0=      1 NMatT0=    0 NMatD0=    1 NMtDS0=    0 NMtDT0=    0
 Petite list used in FoFCou.
 Harris En= -682.979728046900    
 JPrj=0 DoOrth=F DoCkMO=F.
 Leave Link  401 at Wed Dec 29 11:03:34 2021, MaxMem=   131072000 cpu:               4.6 elap:               0.6
 (Enter /public/scc/g16/g16/l502.exe)
 Keep R1 ints in memory in canonical form, NReq=46114690.
 FoFCou: FMM=F IPFlag=           0 FMFlag=           0 FMFlg1=           0
         NFxFlg=           0 DoJE=F BraDBF=F KetDBF=F FulRan=T
         wScrn=  0.000000 ICntrl=       600 IOpCl=  0 I1Cent=           0 NGrid=           0
         NMat0=    1 NMatS0=   6216 NMatT0=    0 NMatD0=    1 NMtDS0=    0 NMtDT0=    0
 Symmetry not used in FoFCou.
 Two-electron integral symmetry not used.
 Closed shell SCF:
 Using DIIS extrapolation, IDIIS=  1040.
 NGot=   131072000 LenX=    92400398 LenY=    92387636
 Requested convergence on RMS density matrix=1.00D-08 within 128 cycles.
 Requested convergence on MAX density matrix=1.00D-06.
 Requested convergence on             energy=1.00D-06.
 No special actions if energy rises.

 Cycle   1  Pass 1  IDiag  1:
 E= -699.845909111647    
 DIIS: error= 1.13D-01 at cycle   1 NSaved=   1.
 NSaved= 1 IEnMin= 1 EnMin= -699.845909111647     IErMin= 1 ErrMin= 1.13D-01
 ErrMax= 1.13D-01  0.00D+00 EMaxC= 1.00D-01 BMatC= 5.97D-01 BMatP= 5.97D-01
 IDIUse=3 WtCom= 0.00D+00 WtEn= 1.00D+00
 Coeff-Com:  0.100D+01
 Coeff-En:   0.100D+01
 Coeff:      0.100D+01
 Gap=     0.566 Goal=   None    Shift=    0.000
 GapD=    0.566 DampG=2.000 DampE=0.250 DampFc=0.5000 IDamp=-1.
 Damping current iteration by 5.00D-01
 RMSDP=1.12D-02 MaxDP=5.15D-01              OVMax= 1.51D-01

 Cycle   2  Pass 1  IDiag  1:
 E= -699.983738082416     Delta-E=       -0.137828970769 Rises=F Damp=T
 DIIS: error= 4.39D-02 at cycle   2 NSaved=   2.
 NSaved= 2 IEnMin= 2 EnMin= -699.983738082416     IErMin= 2 ErrMin= 4.39D-02
 ErrMax= 4.39D-02  0.00D+00 EMaxC= 1.00D-01 BMatC= 7.81D-02 BMatP= 5.97D-01
 IDIUse=3 WtCom= 5.61D-01 WtEn= 4.39D-01
 Coeff-Com: -0.293D+00 0.129D+01
 Coeff-En:   0.000D+00 0.100D+01
 Coeff:     -0.165D+00 0.116D+01
 Gap=     0.540 Goal=   None    Shift=    0.000
 RMSDP=2.51D-03 MaxDP=5.30D-02 DE=-1.38D-01 OVMax= 9.26D-02

 Cycle   3  Pass 1  IDiag  1:
 E= -700.099165064459     Delta-E=       -0.115426982043 Rises=F Damp=F
 DIIS: error= 1.22D-02 at cycle   3 NSaved=   3.
 NSaved= 3 IEnMin= 3 EnMin= -700.099165064459     IErMin= 3 ErrMin= 1.22D-02
 ErrMax= 1.22D-02  0.00D+00 EMaxC= 1.00D-01 BMatC= 3.26D-02 BMatP= 7.81D-02
 IDIUse=3 WtCom= 8.78D-01 WtEn= 1.22D-01
 Coeff-Com: -0.192D+00 0.609D+00 0.582D+00
 Coeff-En:   0.000D+00 0.000D+00 0.100D+01
 Coeff:     -0.168D+00 0.535D+00 0.633D+00
 Gap=     0.468 Goal=   None    Shift=    0.000
 RMSDP=1.69D-03 MaxDP=3.31D-02 DE=-1.15D-01 OVMax= 4.22D-02

 Cycle   4  Pass 1  IDiag  1:
 E= -700.119175156342     Delta-E=       -0.020010091883 Rises=F Damp=F
 DIIS: error= 4.36D-03 at cycle   4 NSaved=   4.
 NSaved= 4 IEnMin= 4 EnMin= -700.119175156342     IErMin= 4 ErrMin= 4.36D-03
 ErrMax= 4.36D-03  0.00D+00 EMaxC= 1.00D-01 BMatC= 3.62D-03 BMatP= 3.26D-02
 IDIUse=3 WtCom= 9.56D-01 WtEn= 4.36D-02
 Coeff-Com: -0.458D-01 0.111D+00 0.286D+00 0.649D+00
 Coeff-En:   0.000D+00 0.000D+00 0.562D-01 0.944D+00
 Coeff:     -0.438D-01 0.106D+00 0.276D+00 0.662D+00
 Gap=     0.454 Goal=   None    Shift=    0.000
 RMSDP=4.96D-04 MaxDP=9.47D-03 DE=-2.00D-02 OVMax= 1.33D-02

 Cycle   5  Pass 1  IDiag  1:
 E= -700.121759500922     Delta-E=       -0.002584344581 Rises=F Damp=F
 DIIS: error= 6.95D-04 at cycle   5 NSaved=   5.
 NSaved= 5 IEnMin= 5 EnMin= -700.121759500922     IErMin= 5 ErrMin= 6.95D-04
 ErrMax= 6.95D-04  0.00D+00 EMaxC= 1.00D-01 BMatC= 8.56D-05 BMatP= 3.62D-03
 IDIUse=3 WtCom= 9.93D-01 WtEn= 6.95D-03
 Coeff-Com: -0.104D-01 0.218D-01 0.684D-01 0.235D+00 0.685D+00
 Coeff-En:   0.000D+00 0.000D+00 0.000D+00 0.000D+00 0.100D+01
 Coeff:     -0.104D-01 0.216D-01 0.679D-01 0.234D+00 0.687D+00
 Gap=     0.452 Goal=   None    Shift=    0.000
 RMSDP=9.13D-05 MaxDP=1.67D-03 DE=-2.58D-03 OVMax= 2.22D-03

 Cycle   6  Pass 1  IDiag  1:
 E= -700.121820228371     Delta-E=       -0.000060727449 Rises=F Damp=F
 DIIS: error= 2.35D-04 at cycle   6 NSaved=   6.
 NSaved= 6 IEnMin= 6 EnMin= -700.121820228371     IErMin= 6 ErrMin= 2.35D-04
 ErrMax= 2.35D-04  0.00D+00 EMaxC= 1.00D-01 BMatC= 1.27D-05 BMatP= 8.56D-05
 IDIUse=3 WtCom= 9.98D-01 WtEn= 2.35D-03
 Coeff-Com:  0.310D-02-0.892D-02-0.167D-01 0.895D-02 0.327D+00 0.686D+00
 Coeff-En:   0.000D+00 0.000D+00 0.000D+00 0.000D+00 0.000D+00 0.100D+01
 Coeff:      0.309D-02-0.890D-02-0.167D-01 0.893D-02 0.327D+00 0.687D+00
 Gap=     0.451 Goal=   None    Shift=    0.000
 RMSDP=2.90D-05 MaxDP=6.06D-04 DE=-6.07D-05 OVMax= 5.18D-04

 Cycle   7  Pass 1  IDiag  1:
 E= -700.121829654807     Delta-E=       -0.000009426436 Rises=F Damp=F
 DIIS: error= 1.97D-05 at cycle   7 NSaved=   7.
 NSaved= 7 IEnMin= 7 EnMin= -700.121829654807     IErMin= 7 ErrMin= 1.97D-05
 ErrMax= 1.97D-05  0.00D+00 EMaxC= 1.00D-01 BMatC= 9.13D-08 BMatP= 1.27D-05
 IDIUse=1 WtCom= 1.00D+00 WtEn= 0.00D+00
 Coeff-Com:  0.882D-03-0.184D-02-0.575D-02-0.151D-01-0.283D-01-0.137D-01
 Coeff-Com:  0.106D+01
 Coeff:      0.882D-03-0.184D-02-0.575D-02-0.151D-01-0.283D-01-0.137D-01
 Coeff:      0.106D+01
 Gap=     0.451 Goal=   None    Shift=    0.000
 RMSDP=1.01D-05 MaxDP=1.42D-04 DE=-9.43D-06 OVMax= 2.25D-04

 Cycle   8  Pass 1  IDiag  1:
 E= -700.121829900971     Delta-E=       -0.000000246164 Rises=F Damp=F
 DIIS: error= 3.55D-06 at cycle   8 NSaved=   8.
 NSaved= 8 IEnMin= 8 EnMin= -700.121829900971     IErMin= 8 ErrMin= 3.55D-06
 ErrMax= 3.55D-06  0.00D+00 EMaxC= 1.00D-01 BMatC= 2.57D-09 BMatP= 9.13D-08
 IDIUse=1 WtCom= 1.00D+00 WtEn= 0.00D+00
 Coeff-Com: -0.886D-04 0.250D-03 0.381D-03-0.259D-03-0.790D-02-0.152D-01
 Coeff-Com: -0.177D-01 0.104D+01
 Coeff:     -0.886D-04 0.250D-03 0.381D-03-0.259D-03-0.790D-02-0.152D-01
 Coeff:     -0.177D-01 0.104D+01
 Gap=     0.451 Goal=   None    Shift=    0.000
 RMSDP=1.64D-06 MaxDP=2.42D-05 DE=-2.46D-07 OVMax= 4.01D-05

 Cycle   9  Pass 1  IDiag  1:
 E= -700.121829909083     Delta-E=       -0.000000008112 Rises=F Damp=F
 DIIS: error= 9.19D-07 at cycle   9 NSaved=   9.
 NSaved= 9 IEnMin= 9 EnMin= -700.121829909083     IErMin= 9 ErrMin= 9.19D-07
 ErrMax= 9.19D-07  0.00D+00 EMaxC= 1.00D-01 BMatC= 1.64D-10 BMatP= 2.57D-09
 IDIUse=1 WtCom= 1.00D+00 WtEn= 0.00D+00
 Coeff-Com: -0.426D-04 0.856D-04 0.262D-03 0.751D-03 0.180D-02 0.315D-02
 Coeff-Com: -0.550D-01-0.770D-01 0.113D+01
 Coeff:     -0.426D-04 0.856D-04 0.262D-03 0.751D-03 0.180D-02 0.315D-02
 Coeff:     -0.550D-01-0.770D-01 0.113D+01
 Gap=     0.451 Goal=   None    Shift=    0.000
 RMSDP=4.57D-07 MaxDP=7.51D-06 DE=-8.11D-09 OVMax= 1.12D-05

 Cycle  10  Pass 1  IDiag  1:
 E= -700.121829909574     Delta-E=       -0.000000000491 Rises=F Damp=F
 DIIS: error= 2.60D-07 at cycle  10 NSaved=  10.
 NSaved=10 IEnMin=10 EnMin= -700.121829909574     IErMin=10 ErrMin= 2.60D-07
 ErrMax= 2.60D-07  0.00D+00 EMaxC= 1.00D-01 BMatC= 1.22D-11 BMatP= 1.64D-10
 IDIUse=1 WtCom= 1.00D+00 WtEn= 0.00D+00
 Coeff-Com: -0.477D-05 0.839D-05 0.306D-04 0.115D-03 0.451D-03 0.943D-03
 Coeff-Com: -0.878D-02-0.409D-01 0.219D+00 0.829D+00
 Coeff:     -0.477D-05 0.839D-05 0.306D-04 0.115D-03 0.451D-03 0.943D-03
 Coeff:     -0.878D-02-0.409D-01 0.219D+00 0.829D+00
 Gap=     0.451 Goal=   None    Shift=    0.000
 RMSDP=6.97D-08 MaxDP=1.07D-06 DE=-4.91D-10 OVMax= 1.68D-06

 Cycle  11  Pass 1  IDiag  1:
 E= -700.121829909589     Delta-E=       -0.000000000015 Rises=F Damp=F
 DIIS: error= 2.93D-07 at cycle  11 NSaved=  11.
 NSaved=11 IEnMin=11 EnMin= -700.121829909589     IErMin=10 ErrMin= 2.60D-07
 ErrMax= 2.93D-07  0.00D+00 EMaxC= 1.00D-01 BMatC= 1.12D-11 BMatP= 1.22D-11
 IDIUse=1 WtCom= 1.00D+00 WtEn= 0.00D+00
 Coeff-Com:  0.520D-05-0.111D-04-0.312D-04-0.737D-04-0.619D-04 0.436D-07
 Coeff-Com:  0.501D-02-0.120D-01-0.724D-01 0.532D+00 0.548D+00
 Coeff:      0.520D-05-0.111D-04-0.312D-04-0.737D-04-0.619D-04 0.436D-07
 Coeff:      0.501D-02-0.120D-01-0.724D-01 0.532D+00 0.548D+00
 Gap=     0.451 Goal=   None    Shift=    0.000
 RMSDP=3.34D-08 MaxDP=5.71D-07 DE=-1.52D-11 OVMax= 8.40D-07

 Cycle  12  Pass 1  IDiag  1:
 E= -700.121829909591     Delta-E=       -0.000000000001 Rises=F Damp=F
 DIIS: error= 2.72D-08 at cycle  12 NSaved=  12.
 NSaved=12 IEnMin=12 EnMin= -700.121829909591     IErMin=12 ErrMin= 2.72D-08
 ErrMax= 2.72D-08  0.00D+00 EMaxC= 1.00D-01 BMatC= 1.26D-13 BMatP= 1.12D-11
 IDIUse=1 WtCom= 1.00D+00 WtEn= 0.00D+00
 Coeff-Com:  0.506D-06-0.965D-06-0.261D-05-0.114D-04-0.357D-04-0.832D-04
 Coeff-Com:  0.914D-03 0.297D-02-0.218D-01-0.584D-01 0.196D-01 0.106D+01
 Coeff:      0.506D-06-0.965D-06-0.261D-05-0.114D-04-0.357D-04-0.832D-04
 Coeff:      0.914D-03 0.297D-02-0.218D-01-0.584D-01 0.196D-01 0.106D+01
 Gap=     0.451 Goal=   None    Shift=    0.000
 RMSDP=1.19D-08 MaxDP=1.13D-07 DE=-1.36D-12 OVMax= 2.95D-07

 Cycle  13  Pass 1  IDiag  1:
 E= -700.121829909599     Delta-E=       -0.000000000008 Rises=F Damp=F
 DIIS: error= 8.73D-09 at cycle  13 NSaved=  13.
 NSaved=13 IEnMin=13 EnMin= -700.121829909599     IErMin=13 ErrMin= 8.73D-09
 ErrMax= 8.73D-09  0.00D+00 EMaxC= 1.00D-01 BMatC= 1.74D-14 BMatP= 1.26D-13
 IDIUse=1 WtCom= 1.00D+00 WtEn= 0.00D+00
 Coeff-Com: -0.774D-07 0.198D-06 0.757D-06 0.244D-06-0.892D-05-0.268D-04
 Coeff-Com:  0.559D-04 0.149D-02-0.368D-02-0.450D-01-0.201D-01 0.349D+00
 Coeff-Com:  0.718D+00
 Coeff:     -0.774D-07 0.198D-06 0.757D-06 0.244D-06-0.892D-05-0.268D-04
 Coeff:      0.559D-04 0.149D-02-0.368D-02-0.450D-01-0.201D-01 0.349D+00
 Coeff:      0.718D+00
 Gap=     0.451 Goal=   None    Shift=    0.000
 RMSDP=2.19D-09 MaxDP=3.34D-08 DE=-8.19D-12 OVMax= 5.80D-08

 SCF Done:  E(RwB97XD) =  -700.121829910     A.U. after   13 cycles
            NFock= 13  Conv=0.22D-08     -V/T= 2.0064
 KE= 6.956919588669D+02 PE=-2.216452334455D+03 EE= 5.399270406098D+02
 Leave Link  502 at Wed Dec 29 11:03:42 2021, MaxMem=   131072000 cpu:              57.9 elap:               7.7
 (Enter /public/scc/g16/g16/l601.exe)
 Copying SCF densities to generalized density rwf, IOpCl= 0 IROHF=0.

 **********************************************************************

            Population analysis using the SCF density.

 **********************************************************************

 Orbital symmetries:
       Occupied  (A) (A) (A) (A) (A) (A) (A) (A) (A) (A) (A) (A)
                 (A) (A) (A) (A) (A) (A) (A) (A) (A) (A) (A) (A)
                 (A)
       Virtual   (A) (A) (A) (A) (A) (A) (A) (A) (A) (A) (A) (A)
                 (A) (A) (A) (A) (A) (A) (A) (A) (A) (A) (A) (A)
                 (A) (A) (A) (A) (A) (A) (A) (A) (A) (A) (A) (A)
                 (A) (A) (A) (A) (A) (A) (A) (A) (A) (A) (A) (A)
                 (A) (A) (A) (A) (A) (A) (A) (A) (A) (A) (A) (A)
                 (A) (A) (A) (A) (A) (A) (A) (A) (A) (A) (A) (A)
                 (A) (A) (A) (A) (A) (A) (A) (A) (A) (A) (A) (A)
                 (A) (A)
 The electronic state is 1-A.
 Alpha  occ. eigenvalues --  -89.37288 -19.37644 -19.37642 -19.32712 -19.32711
 Alpha  occ. eigenvalues --   -8.34695  -6.29792  -6.29713  -6.29553  -1.30722
 Alpha  occ. eigenvalues --   -1.19322  -1.17287  -1.15851  -0.80734  -0.72386
 Alpha  occ. eigenvalues --   -0.64345  -0.62274  -0.59372  -0.55179  -0.51672
 Alpha  occ. eigenvalues --   -0.48543  -0.47940  -0.44573  -0.44535  -0.43258
 Alpha virt. eigenvalues --    0.01884   0.04914   0.07947   0.09792   0.10007
 Alpha virt. eigenvalues --    0.11052   0.12131   0.12787   0.14729   0.17403
 Alpha virt. eigenvalues --    0.19749   0.22578   0.23801   0.24255   0.24998
 Alpha virt. eigenvalues --    0.28808   0.30344   0.30368   0.31625   0.31925
 Alpha virt. eigenvalues --    0.32799   0.35223   0.35649   0.37050   0.37063
 Alpha virt. eigenvalues --    0.38715   0.41247   0.45868   0.56455   0.62463
 Alpha virt. eigenvalues --    0.65422   0.65717   0.69481   0.82041   0.99036
 Alpha virt. eigenvalues --    1.02104   1.06714   1.11411   1.12272   1.18502
 Alpha virt. eigenvalues --    1.22278   1.24062   1.25459   1.27985   1.28097
 Alpha virt. eigenvalues --    1.29695   1.31441   1.36579   1.37262   1.38442
 Alpha virt. eigenvalues --    1.40782   1.54598   1.55485   1.59534   1.59720
 Alpha virt. eigenvalues --    1.63062   1.67749   1.79321   1.80492   1.82172
 Alpha virt. eigenvalues --    1.85231   1.85257   1.86034   1.89931   2.06653
 Alpha virt. eigenvalues --    2.12616   2.14619   2.18277   2.27776   2.34382
 Alpha virt. eigenvalues --    2.43144   2.51193   2.62092   2.65639   2.66067
 Alpha virt. eigenvalues --    2.73838   2.75952   2.89876   2.92865   3.44100
 Alpha virt. eigenvalues --    3.48407   4.02441   4.12288   4.15115   4.21072
 Alpha virt. eigenvalues --    4.31048
          Condensed to atoms (all electrons):
               1          2          3          4          5          6
     1  S   13.739367   0.032968   0.318957   0.032898   0.318978   0.025996
     2  O    0.032968   8.521093  -0.041524  -0.020748  -0.106574   0.215974
     3  O    0.318957  -0.041524   8.558186  -0.106600  -0.161709   0.010914
     4  O    0.032898  -0.020748  -0.106600   8.521014  -0.041512  -0.007366
     5  O    0.318978  -0.106574  -0.161709  -0.041512   8.558133  -0.014438
     6  H    0.025996   0.215974   0.010914  -0.007366  -0.014438   0.362883
     7  H    0.026010  -0.007370  -0.014455   0.215988   0.010919   0.000924
               7
     1  S    0.026010
     2  O   -0.007370
     3  O   -0.014455
     4  O    0.215988
     5  O    0.010919
     6  H    0.000924
     7  H    0.362870
 Mulliken charges:
               1
     1  S    1.504828
     2  O   -0.593819
     3  O   -0.563768
     4  O   -0.593674
     5  O   -0.563795
     6  H    0.405113
     7  H    0.405115
 Sum of Mulliken charges =  -0.00000
 Mulliken charges with hydrogens summed into heavy atoms:
               1
     1  S    1.504828
     2  O   -0.188706
     3  O   -0.563768
     4  O   -0.188559
     5  O   -0.563795
 Electronic spatial extent (au):  <R**2>=            384.0573
 Charge=             -0.0000 electrons
 Dipole moment (field-independent basis, Debye):
    X=             -0.0023    Y=             -0.0013    Z=              3.1735  Tot=              3.1735
 Quadrupole moment (field-independent basis, Debye-Ang):
   XX=            -29.5417   YY=            -41.3288   ZZ=            -35.0663
   XY=              0.9915   XZ=              0.0046   YZ=             -0.0025
 Traceless Quadrupole moment (field-independent basis, Debye-Ang):
   XX=              5.7706   YY=             -6.0165   ZZ=              0.2460
   XY=              0.9915   XZ=              0.0046   YZ=             -0.0025
 Octapole moment (field-independent basis, Debye-Ang**2):
  XXX=             -0.0196  YYY=             -0.0028  ZZZ=              6.5133  XYY=             -0.0077
  XXY=             -0.0160  XXZ=             11.8765  XZZ=              0.0159  YZZ=              0.0074
  YYZ=              2.2751  XYZ=              5.9745
 Hexadecapole moment (field-independent basis, Debye-Ang**3):
 XXXX=           -123.8316 YYYY=           -157.3297 ZZZZ=           -139.0507 XXXY=              4.7011
 XXXZ=             -0.0003 YYYX=             -0.1190 YYYZ=              0.0026 ZZZX=              0.0277
 ZZZY=             -0.0049 XXYY=            -55.3228 XXZZ=            -35.5333 YYZZ=            -53.1317
 XXYZ=             -0.0091 YYXZ=             -0.0013 ZZXY=              1.5305
 N-N= 2.807115050687D+02 E-N=-2.216452334364D+03  KE= 6.956919588669D+02
 No NMR shielding tensors so no spin-rotation constants.
 Leave Link  601 at Wed Dec 29 11:03:42 2021, MaxMem=   131072000 cpu:               1.0 elap:               0.2
 (Enter /public/scc/g16/g16/l701.exe)
 ... and contract with generalized density number  0.
 Compute integral first derivatives.
 R6Disp: Adding Grimme-D2 dispersion energy 1st derivatives to the gradient.
 Leave Link  701 at Wed Dec 29 11:03:42 2021, MaxMem=   131072000 cpu:               1.2 elap:               0.2
 (Enter /public/scc/g16/g16/l702.exe)
 L702 exits ... SP integral derivatives will be done elsewhere.
 Leave Link  702 at Wed Dec 29 11:03:42 2021, MaxMem=   131072000 cpu:               0.1 elap:               0.0
 (Enter /public/scc/g16/g16/l703.exe)
 Integral derivatives from FoFJK, PRISM(SPDF).
 Compute integral first derivatives, UseDBF=F ICtDFT=           0.
 Calling FoFJK, ICntrl=      2127 FMM=F ISym2X=0 I1Cent= 0 IOpClX= 0 NMat=1 NMatS=1 NMatT=0.
 FoFJK:  IHMeth= 1 ICntrl=    2127 DoSepK=T KAlg= 0 I1Cent=           0 FoldK=F
 IRaf=         1 NMat=       1 IRICut=       1 DoRegI=T DoRafI=F ISym2E= 0 IDoP0=0 IntGTp=1.
 FoFCou: FMM=F IPFlag=           0 FMFlag=      100000 FMFlg1=         800
         NFxFlg=           0 DoJE=F BraDBF=F KetDBF=F FulRan=T
         wScrn=  0.000000 ICntrl=      2527 IOpCl=  0 I1Cent=           0 NGrid=           0
         NMat0=    1 NMatS0=      1 NMatT0=    0 NMatD0=    1 NMtDS0=    0 NMtDT0=    0
 Symmetry not used in FoFCou.
 Leave Link  703 at Wed Dec 29 11:03:45 2021, MaxMem=   131072000 cpu:              19.8 elap:               2.5
 (Enter /public/scc/g16/g16/l716.exe)
 Dipole        =-8.85264875D-04-4.98432531D-04 1.24853575D+00
 ***** Axes restored to original set *****
 -------------------------------------------------------------------
 Center     Atomic                   Forces (Hartrees/Bohr)
 Number     Number              X              Y              Z
 -------------------------------------------------------------------
      1       16          -0.000056307    0.000027059    0.007561094
      2        8           0.016568425    0.009253669    0.012038388
      3        8           0.001122041    0.034367917   -0.016283721
      4        8          -0.016600873   -0.009155060    0.012089436
      5        8          -0.001061074   -0.034410668   -0.016321791
      6        1          -0.000810350   -0.005877931    0.000471198
      7        1           0.000838138    0.005795014    0.000445396
 -------------------------------------------------------------------
 Cartesian Forces:  Max     0.034410668 RMS     0.013864829
 Leave Link  716 at Wed Dec 29 11:03:45 2021, MaxMem=   131072000 cpu:               0.2 elap:               0.0
 (Enter /public/scc/g16/g16/l103.exe)

 GradGradGradGradGradGradGradGradGradGradGradGradGradGradGradGradGradGrad
 Berny optimization.
 FormGI is forming the generalized inverse of G from B-inverse, IUseBI=4.
 Internal  Forces:  Max     0.038061377 RMS     0.013832391
 Search for a local minimum.
 Step number   1 out of a maximum of   30
 All quantities printed in internal units (Hartrees-Bohrs-Radians)
 RMS Force = .13832D-01 SwitMx=.10000D-02 MixMth= 1
 Mixed Optimization -- RFO/linear search
 Second derivative matrix not updated -- first step.
 The second derivative matrix:
                          R1        R2        R3        R4        R5
           R1           0.43092
           R2           0.00000   0.88880
           R3           0.00000   0.00000   0.43090
           R4           0.00000   0.00000   0.00000   0.88861
           R5           0.00000   0.00000   0.00000   0.00000   0.52177
           R6           0.00000   0.00000   0.00000   0.00000   0.00000
           A1           0.00000   0.00000   0.00000   0.00000   0.00000
           A2           0.00000   0.00000   0.00000   0.00000   0.00000
           A3           0.00000   0.00000   0.00000   0.00000   0.00000
           A4           0.00000   0.00000   0.00000   0.00000   0.00000
           A5           0.00000   0.00000   0.00000   0.00000   0.00000
           A6           0.00000   0.00000   0.00000   0.00000   0.00000
           A7           0.00000   0.00000   0.00000   0.00000   0.00000
           A8           0.00000   0.00000   0.00000   0.00000   0.00000
           D1           0.00000   0.00000   0.00000   0.00000   0.00000
           D2           0.00000   0.00000   0.00000   0.00000   0.00000
           D3           0.00000   0.00000   0.00000   0.00000   0.00000
           D4           0.00000   0.00000   0.00000   0.00000   0.00000
           D5           0.00000   0.00000   0.00000   0.00000   0.00000
           D6           0.00000   0.00000   0.00000   0.00000   0.00000
                          R6        A1        A2        A3        A4
           R6           0.52195
           A1           0.00000   0.25000
           A2           0.00000   0.00000   0.25000
           A3           0.00000   0.00000   0.00000   0.25000
           A4           0.00000   0.00000   0.00000   0.00000   0.25000
           A5           0.00000   0.00000   0.00000   0.00000   0.00000
           A6           0.00000   0.00000   0.00000   0.00000   0.00000
           A7           0.00000   0.00000   0.00000   0.00000   0.00000
           A8           0.00000   0.00000   0.00000   0.00000   0.00000
           D1           0.00000   0.00000   0.00000   0.00000   0.00000
           D2           0.00000   0.00000   0.00000   0.00000   0.00000
           D3           0.00000   0.00000   0.00000   0.00000   0.00000
           D4           0.00000   0.00000   0.00000   0.00000   0.00000
           D5           0.00000   0.00000   0.00000   0.00000   0.00000
           D6           0.00000   0.00000   0.00000   0.00000   0.00000
                          A5        A6        A7        A8        D1
           A5           0.25000
           A6           0.00000   0.25000
           A7           0.00000   0.00000   0.16000
           A8           0.00000   0.00000   0.00000   0.16000
           D1           0.00000   0.00000   0.00000   0.00000   0.01996
           D2           0.00000   0.00000   0.00000   0.00000   0.00000
           D3           0.00000   0.00000   0.00000   0.00000   0.00000
           D4           0.00000   0.00000   0.00000   0.00000   0.00000
           D5           0.00000   0.00000   0.00000   0.00000   0.00000
           D6           0.00000   0.00000   0.00000   0.00000   0.00000
                          D2        D3        D4        D5        D6
           D2           0.01996
           D3           0.00000   0.01996
           D4           0.00000   0.00000   0.01996
           D5           0.00000   0.00000   0.00000   0.01996
           D6           0.00000   0.00000   0.00000   0.00000   0.01996
 ITU=  0
     Eigenvalues ---    0.01996   0.01996   0.15592   0.15600   0.16000
     Eigenvalues ---    0.16000   0.16580   0.21267   0.25000   0.43090
     Eigenvalues ---    0.43092   0.52177   0.52195   0.88861   0.88880
 RFO step:  Lambda=-5.53043286D-03 EMin= 1.99577951D-02
 Linear search not attempted -- first point.
 Iteration  1 RMS(Cart)=  0.02093294 RMS(Int)=  0.00015712
 Iteration  2 RMS(Cart)=  0.00022022 RMS(Int)=  0.00000481
 Iteration  3 RMS(Cart)=  0.00000002 RMS(Int)=  0.00000481
 ITry= 1 IFail=0 DXMaxC= 4.42D-02 DCOld= 1.00D+10 DXMaxT= 3.00D-01 DXLimC= 3.00D+00 Rises=F
 Variable       Old X    -DE/DX   Delta X   Delta X   Delta X     New X
                                 (Linear)    (Quad)   (Total)
    R1        3.11257  -0.02023   0.00000  -0.04635  -0.04635   3.06622
    R2        2.77153  -0.03801   0.00000  -0.04250  -0.04250   2.72904
    R3        3.11259  -0.02025   0.00000  -0.04639  -0.04639   3.06619
    R4        2.77162  -0.03806   0.00000  -0.04257  -0.04257   2.72905
    R5        1.84430  -0.00554   0.00000  -0.01050  -0.01050   1.83380
    R6        1.84413  -0.00545   0.00000  -0.01033  -0.01033   1.83380
    A1        1.83066   0.00233   0.00000   0.01090   0.01091   1.84157
    A2        1.76975  -0.00038   0.00000   0.00037   0.00037   1.77012
    A3        1.90113  -0.00115   0.00000  -0.00503  -0.00503   1.89610
    A4        1.90123  -0.00118   0.00000  -0.00524  -0.00524   1.89599
    A5        2.18777  -0.00175   0.00000  -0.00995  -0.00994   2.17783
    A6        1.83094   0.00226   0.00000   0.01047   0.01047   1.84142
    A7        1.85627   0.00408   0.00000   0.02466   0.02466   1.88093
    A8        1.85614   0.00410   0.00000   0.02475   0.02475   1.88089
    D1        2.89352  -0.00030   0.00000  -0.00511  -0.00512   2.88839
    D2       -1.41162  -0.00094   0.00000  -0.00703  -0.00702  -1.41864
    D3        0.51305   0.00101   0.00000   0.00305   0.00305   0.51610
    D4       -1.41092  -0.00096   0.00000  -0.00725  -0.00724  -1.41816
    D5        0.51348   0.00106   0.00000   0.00324   0.00324   0.51672
    D6        2.89423  -0.00033   0.00000  -0.00542  -0.00543   2.88880
         Item               Value     Threshold  Converged?
 Maximum Force            0.038061     0.000450     NO 
 RMS     Force            0.013832     0.000300     NO 
 Maximum Displacement     0.044165     0.001800     NO 
 RMS     Displacement     0.020951     0.001200     NO 
 Predicted change in Energy=-2.792624D-03
 Lowest energy point so far.  Saving SCF results.
 GradGradGradGradGradGradGradGradGradGradGradGradGradGradGradGradGradGrad

 Leave Link  103 at Wed Dec 29 11:03:45 2021, MaxMem=   131072000 cpu:               0.1 elap:               0.0
 (Enter /public/scc/g16/g16/l202.exe)
                          Input orientation:                          
 ---------------------------------------------------------------------
 Center     Atomic      Atomic             Coordinates (Angstroms)
 Number     Number       Type             X           Y           Z
 ---------------------------------------------------------------------
      1         16           0       -0.000029   -0.000038    0.171405
      2          8           0       -1.254483   -0.056107   -0.856186
      3          8           0        0.008560   -1.279703    0.840685
      4          8           0        1.254592    0.056085   -0.855957
      5          8           0       -0.008494    1.279629    0.840703
      6          1           0       -1.435629    0.850145   -1.152123
      7          1           0        1.435483   -0.850111   -1.152228
 ---------------------------------------------------------------------
                    Distance matrix (angstroms):
                    1          2          3          4          5
     1  S    0.000000
     2  O    1.622572   0.000000
     3  O    1.444144   2.443734   0.000000
     4  O    1.622558   2.511581   2.493095   0.000000
     5  O    1.444154   2.493214   2.559389   2.443584   0.000000
     6  H    2.129668   0.970405   3.254723   2.820556   2.488479
     7  H    2.129631   2.820284   2.488446   0.970407   3.254634
                    6          7
     6  H    0.000000
     7  H    3.336789   0.000000
 Stoichiometry    H2O4S
 Framework group  C1[X(H2O4S)]
 Deg. of freedom    15
 Full point group                 C1      NOp   1
 RotChk:  IX=0 Diff= 2.25D-02
 Largest Abelian subgroup         C1      NOp   1
 Largest concise Abelian subgroup C1      NOp   1
                         Standard orientation:                         
 ---------------------------------------------------------------------
 Center     Atomic      Atomic             Coordinates (Angstroms)
 Number     Number       Type             X           Y           Z
 ---------------------------------------------------------------------
      1         16           0       -0.000038    0.000199   -0.167563
      2          8           0        1.048987   -0.692056    0.858629
      3          8           0       -0.663301   -1.093444   -0.838072
      4          8           0       -1.048308    0.689750    0.861196
      5          8           0        0.662551    1.095753   -0.835632
      6          1           0        1.668975   -0.006988    1.155248
      7          1           0       -1.667797    0.003782    1.156784
 ---------------------------------------------------------------------
 Rotational constants (GHZ):           4.8973404           4.8387847           4.6601883
 Leave Link  202 at Wed Dec 29 11:03:45 2021, MaxMem=   131072000 cpu:               0.1 elap:               0.0
 (Enter /public/scc/g16/g16/l301.exe)
 Standard basis: 6-31++G(d,p) (6D, 7F)
 Ernie: Thresh=  0.10000D-02 Tol=  0.10000D-05 Strict=F.
 There are   111 symmetry adapted cartesian basis functions of A   symmetry.
 There are   111 symmetry adapted basis functions of A   symmetry.
   111 basis functions,   200 primitive gaussians,   111 cartesian basis functions
    25 alpha electrons       25 beta electrons
       nuclear repulsion energy       284.7412739227 Hartrees.
 IExCor= 4639 DFT=T Ex+Corr=wB97XD ExCW=0 ScaHFX=  1.000000
 ScaDFX=  1.000000  1.000000  1.000000  1.000000 ScalE2=  1.000000  1.000000
 IRadAn=      5 IRanWt=     -1 IRanGd=            0 ICorTp=0 IEmpDi=121
 HFx  wShort=  0.000000 wLong=  0.200000 cFull=  0.222036 cShort=  0.000000 cLong=  0.777964
 DFx  wShort=  0.000000 wLong=  0.200000 cFull=  0.000000 cShort=  0.000000 cLong=  1.000000
 NAtoms=    7 NActive=    7 NUniq=    7 SFac= 1.00D+00 NAtFMM=   60 NAOKFM=F Big=F
 Integral buffers will be    131072 words long.
 Raffenetti 2 integral format.
 Two-electron integral symmetry is turned on.
 R6Disp:  Grimme-D2 Dispersion energy=       -0.0012761852 Hartrees.
 Nuclear repulsion after empirical dispersion term =      284.7399977375 Hartrees.
 Leave Link  301 at Wed Dec 29 11:03:45 2021, MaxMem=   131072000 cpu:               0.4 elap:               0.1
 (Enter /public/scc/g16/g16/l302.exe)
 NPDir=0 NMtPBC=     1 NCelOv=     1 NCel=       1 NClECP=     1 NCelD=      1
         NCelK=      1 NCelE2=     1 NClLst=     1 CellRange=     0.0.
 One-electron integrals computed using PRISM.
 One-electron integral symmetry used in STVInt
 NBasis=   111 RedAO= T EigKep=  1.28D-03  NBF=   111
 NBsUse=   111 1.00D-06 EigRej= -1.00D+00 NBFU=   111
 Precomputing XC quadrature grid using
 IXCGrd= 4 IRadAn=           5 IRanWt=          -1 IRanGd=           0 AccXCQ= 0.00D+00.
 Generated NRdTot=       0 NPtTot=           0 NUsed=           0 NTot=          32
 NSgBfM=   111   111   111   111   111 MxSgAt=     7 MxSgA2=     7.
 Leave Link  302 at Wed Dec 29 11:03:45 2021, MaxMem=   131072000 cpu:               1.2 elap:               0.2
 (Enter /public/scc/g16/g16/l303.exe)
 DipDrv:  MaxL=1.
 Leave Link  303 at Wed Dec 29 11:03:45 2021, MaxMem=   131072000 cpu:               0.2 elap:               0.0
 (Enter /public/scc/g16/g16/l401.exe)
 Initial guess from the checkpoint file:  "SA.chk"
 B after Tr=     0.000000    0.000000   -0.000000
         Rot=    0.999970   -0.000457   -0.000591    0.007741 Ang=  -0.89 deg.
 Guess basis will be translated and rotated to current coordinates.
 JPrj=2 DoOrth=T DoCkMO=T.
 Generating alternative initial guess.
 ExpMin= 3.60D-02 ExpMax= 2.19D+04 ExpMxC= 3.30D+03 IAcc=3 IRadAn=         5 AccDes= 0.00D+00
 Harris functional with IExCor= 4639 and IRadAn=       5 diagonalized for initial guess.
 HarFok:  IExCor= 4639 AccDes= 0.00D+00 IRadAn=         5 IDoV= 1 UseB2=F ITyADJ=14
 ICtDFT=  3500011 ScaDFX=  1.000000  1.000000  1.000000  1.000000
 FoFCou: FMM=F IPFlag=           0 FMFlag=      100000 FMFlg1=           0
         NFxFlg=           0 DoJE=T BraDBF=F KetDBF=T FulRan=T
         wScrn=  0.000000 ICntrl=       500 IOpCl=  0 I1Cent=   200000004 NGrid=           0
         NMat0=    1 NMatS0=      1 NMatT0=    0 NMatD0=    1 NMtDS0=    0 NMtDT0=    0
 Petite list used in FoFCou.
 Harris En= -682.960133022353    
 Leave Link  401 at Wed Dec 29 11:03:46 2021, MaxMem=   131072000 cpu:               4.5 elap:               0.6
 (Enter /public/scc/g16/g16/l502.exe)
 Keep R1 ints in memory in canonical form, NReq=46114690.
 FoFCou: FMM=F IPFlag=           0 FMFlag=           0 FMFlg1=           0
         NFxFlg=           0 DoJE=F BraDBF=F KetDBF=F FulRan=T
         wScrn=  0.000000 ICntrl=       600 IOpCl=  0 I1Cent=           0 NGrid=           0
         NMat0=    1 NMatS0=   6216 NMatT0=    0 NMatD0=    1 NMtDS0=    0 NMtDT0=    0
 Symmetry not used in FoFCou.
 Two-electron integral symmetry not used.
 Closed shell SCF:
 Using DIIS extrapolation, IDIIS=  1040.
 NGot=   131072000 LenX=    92400398 LenY=    92387636
 Requested convergence on RMS density matrix=1.00D-08 within 128 cycles.
 Requested convergence on MAX density matrix=1.00D-06.
 Requested convergence on             energy=1.00D-06.
 No special actions if energy rises.

 Cycle   1  Pass 1  IDiag  1:
 E= -700.124202867383    
 DIIS: error= 2.97D-03 at cycle   1 NSaved=   1.
 NSaved= 1 IEnMin= 1 EnMin= -700.124202867383     IErMin= 1 ErrMin= 2.97D-03
 ErrMax= 2.97D-03  0.00D+00 EMaxC= 1.00D-01 BMatC= 9.30D-04 BMatP= 9.30D-04
 IDIUse=3 WtCom= 9.70D-01 WtEn= 2.97D-02
 Coeff-Com:  0.100D+01
 Coeff-En:   0.100D+01
 Coeff:      0.100D+01
 Gap=     0.739 Goal=   None    Shift=    0.000
 GapD=    0.739 DampG=2.000 DampE=1.000 DampFc=2.0000 IDamp=-1.
 RMSDP=6.46D-04 MaxDP=1.82D-02              OVMax= 8.48D-03

 Cycle   2  Pass 1  IDiag  1:
 E= -700.125427434621     Delta-E=       -0.001224567238 Rises=F Damp=F
 DIIS: error= 7.23D-04 at cycle   2 NSaved=   2.
 NSaved= 2 IEnMin= 2 EnMin= -700.125427434621     IErMin= 2 ErrMin= 7.23D-04
 ErrMax= 7.23D-04  0.00D+00 EMaxC= 1.00D-01 BMatC= 1.06D-04 BMatP= 9.30D-04
 IDIUse=3 WtCom= 9.93D-01 WtEn= 7.23D-03
 Coeff-Com:  0.793D-01 0.921D+00
 Coeff-En:   0.000D+00 0.100D+01
 Coeff:      0.787D-01 0.921D+00
 Gap=     0.452 Goal=   None    Shift=    0.000
 RMSDP=1.64D-04 MaxDP=2.28D-03 DE=-1.22D-03 OVMax= 2.42D-03

 Cycle   3  Pass 1  IDiag  1:
 E= -700.125507501925     Delta-E=       -0.000080067304 Rises=F Damp=F
 DIIS: error= 5.29D-04 at cycle   3 NSaved=   3.
 NSaved= 3 IEnMin= 3 EnMin= -700.125507501925     IErMin= 3 ErrMin= 5.29D-04
 ErrMax= 5.29D-04  0.00D+00 EMaxC= 1.00D-01 BMatC= 4.29D-05 BMatP= 1.06D-04
 IDIUse=3 WtCom= 9.95D-01 WtEn= 5.29D-03
 Coeff-Com: -0.666D-01 0.383D+00 0.684D+00
 Coeff-En:   0.000D+00 0.000D+00 0.100D+01
 Coeff:     -0.662D-01 0.381D+00 0.686D+00
 Gap=     0.454 Goal=   None    Shift=    0.000
 RMSDP=5.69D-05 MaxDP=1.39D-03 DE=-8.01D-05 OVMax= 1.19D-03

 Cycle   4  Pass 1  IDiag  1:
 E= -700.125539169629     Delta-E=       -0.000031667704 Rises=F Damp=F
 DIIS: error= 1.04D-04 at cycle   4 NSaved=   4.
 NSaved= 4 IEnMin= 4 EnMin= -700.125539169629     IErMin= 4 ErrMin= 1.04D-04
 ErrMax= 1.04D-04  0.00D+00 EMaxC= 1.00D-01 BMatC= 2.51D-06 BMatP= 4.29D-05
 IDIUse=3 WtCom= 9.99D-01 WtEn= 1.04D-03
 Coeff-Com: -0.308D-01 0.883D-01 0.260D+00 0.683D+00
 Coeff-En:   0.000D+00 0.000D+00 0.000D+00 0.100D+01
 Coeff:     -0.307D-01 0.882D-01 0.260D+00 0.683D+00
 Gap=     0.454 Goal=   None    Shift=    0.000
 RMSDP=2.25D-05 MaxDP=6.72D-04 DE=-3.17D-05 OVMax= 3.61D-04

 Cycle   5  Pass 1  IDiag  1:
 E= -700.125541324586     Delta-E=       -0.000002154957 Rises=F Damp=F
 DIIS: error= 3.59D-05 at cycle   5 NSaved=   5.
 NSaved= 5 IEnMin= 5 EnMin= -700.125541324586     IErMin= 5 ErrMin= 3.59D-05
 ErrMax= 3.59D-05  0.00D+00 EMaxC= 1.00D-01 BMatC= 2.00D-07 BMatP= 2.51D-06
 IDIUse=1 WtCom= 1.00D+00 WtEn= 0.00D+00
 Coeff-Com:  0.291D-02-0.333D-01-0.379D-01 0.188D+00 0.881D+00
 Coeff:      0.291D-02-0.333D-01-0.379D-01 0.188D+00 0.881D+00
 Gap=     0.454 Goal=   None    Shift=    0.000
 RMSDP=9.72D-06 MaxDP=2.66D-04 DE=-2.15D-06 OVMax= 1.81D-04

 Cycle   6  Pass 1  IDiag  1:
 E= -700.125541542911     Delta-E=       -0.000000218324 Rises=F Damp=F
 DIIS: error= 1.40D-05 at cycle   6 NSaved=   6.
 NSaved= 6 IEnMin= 6 EnMin= -700.125541542911     IErMin= 6 ErrMin= 1.40D-05
 ErrMax= 1.40D-05  0.00D+00 EMaxC= 1.00D-01 BMatC= 4.04D-08 BMatP= 2.00D-07
 IDIUse=1 WtCom= 1.00D+00 WtEn= 0.00D+00
 Coeff-Com:  0.305D-02-0.217D-01-0.332D-01 0.633D-01 0.439D+00 0.550D+00
 Coeff:      0.305D-02-0.217D-01-0.332D-01 0.633D-01 0.439D+00 0.550D+00
 Gap=     0.454 Goal=   None    Shift=    0.000
 RMSDP=2.22D-06 MaxDP=3.47D-05 DE=-2.18D-07 OVMax= 4.96D-05

 Cycle   7  Pass 1  IDiag  1:
 E= -700.125541573579     Delta-E=       -0.000000030668 Rises=F Damp=F
 DIIS: error= 4.00D-06 at cycle   7 NSaved=   7.
 NSaved= 7 IEnMin= 7 EnMin= -700.125541573579     IErMin= 7 ErrMin= 4.00D-06
 ErrMax= 4.00D-06  0.00D+00 EMaxC= 1.00D-01 BMatC= 2.70D-09 BMatP= 4.04D-08
 IDIUse=1 WtCom= 1.00D+00 WtEn= 0.00D+00
 Coeff-Com:  0.535D-03-0.188D-02-0.527D-02-0.900D-02-0.156D-01 0.188D+00
 Coeff-Com:  0.844D+00
 Coeff:      0.535D-03-0.188D-02-0.527D-02-0.900D-02-0.156D-01 0.188D+00
 Coeff:      0.844D+00
 Gap=     0.454 Goal=   None    Shift=    0.000
 RMSDP=9.26D-07 MaxDP=1.49D-05 DE=-3.07D-08 OVMax= 1.49D-05

 Cycle   8  Pass 1  IDiag  1:
 E= -700.125541576382     Delta-E=       -0.000000002803 Rises=F Damp=F
 DIIS: error= 3.98D-07 at cycle   8 NSaved=   8.
 NSaved= 8 IEnMin= 8 EnMin= -700.125541576382     IErMin= 8 ErrMin= 3.98D-07
 ErrMax= 3.98D-07  0.00D+00 EMaxC= 1.00D-01 BMatC= 3.34D-11 BMatP= 2.70D-09
 IDIUse=1 WtCom= 1.00D+00 WtEn= 0.00D+00
 Coeff-Com: -0.144D-03 0.108D-02 0.159D-02-0.239D-02-0.251D-01-0.246D-01
 Coeff-Com:  0.182D-01 0.103D+01
 Coeff:     -0.144D-03 0.108D-02 0.159D-02-0.239D-02-0.251D-01-0.246D-01
 Coeff:      0.182D-01 0.103D+01
 Gap=     0.454 Goal=   None    Shift=    0.000
 RMSDP=1.95D-07 MaxDP=3.32D-06 DE=-2.80D-09 OVMax= 3.95D-06

 Cycle   9  Pass 1  IDiag  1:
 E= -700.125541576450     Delta-E=       -0.000000000068 Rises=F Damp=F
 DIIS: error= 7.65D-08 at cycle   9 NSaved=   9.
 NSaved= 9 IEnMin= 9 EnMin= -700.125541576450     IErMin= 9 ErrMin= 7.65D-08
 ErrMax= 7.65D-08  0.00D+00 EMaxC= 1.00D-01 BMatC= 1.69D-12 BMatP= 3.34D-11
 IDIUse=1 WtCom= 1.00D+00 WtEn= 0.00D+00
 Coeff-Com: -0.324D-04 0.189D-03 0.334D-03 0.837D-04-0.286D-02-0.837D-02
 Coeff-Com: -0.215D-01 0.133D+00 0.899D+00
 Coeff:     -0.324D-04 0.189D-03 0.334D-03 0.837D-04-0.286D-02-0.837D-02
 Coeff:     -0.215D-01 0.133D+00 0.899D+00
 Gap=     0.454 Goal=   None    Shift=    0.000
 RMSDP=2.98D-08 MaxDP=4.48D-07 DE=-6.80D-11 OVMax= 6.40D-07

 Cycle  10  Pass 1  IDiag  1:
 E= -700.125541576461     Delta-E=       -0.000000000011 Rises=F Damp=F
 DIIS: error= 9.14D-08 at cycle  10 NSaved=  10.
 NSaved=10 IEnMin=10 EnMin= -700.125541576461     IErMin= 9 ErrMin= 7.65D-08
 ErrMax= 9.14D-08  0.00D+00 EMaxC= 1.00D-01 BMatC= 1.42D-12 BMatP= 1.69D-12
 IDIUse=1 WtCom= 1.00D+00 WtEn= 0.00D+00
 Coeff-Com: -0.426D-05 0.124D-05 0.325D-04 0.309D-03 0.847D-03-0.246D-02
 Coeff-Com: -0.146D-01-0.263D-01 0.532D+00 0.510D+00
 Coeff:     -0.426D-05 0.124D-05 0.325D-04 0.309D-03 0.847D-03-0.246D-02
 Coeff:     -0.146D-01-0.263D-01 0.532D+00 0.510D+00
 Gap=     0.454 Goal=   None    Shift=    0.000
 RMSDP=1.11D-08 MaxDP=2.02D-07 DE=-1.13D-11 OVMax= 2.96D-07

 Cycle  11  Pass 1  IDiag  1:
 E= -700.125541576455     Delta-E=        0.000000000006 Rises=F Damp=F
 DIIS: error= 1.21D-08 at cycle  11 NSaved=  11.
 NSaved=11 IEnMin=10 EnMin= -700.125541576461     IErMin=11 ErrMin= 1.21D-08
 ErrMax= 1.21D-08  0.00D+00 EMaxC= 1.00D-01 BMatC= 2.76D-14 BMatP= 1.42D-12
 IDIUse=1 WtCom= 1.00D+00 WtEn= 0.00D+00
 Coeff-Com:  0.347D-05-0.256D-04-0.393D-04 0.660D-04 0.565D-03 0.533D-03
 Coeff-Com: -0.409D-03-0.229D-01 0.264D-02 0.105D+00 0.915D+00
 Coeff:      0.347D-05-0.256D-04-0.393D-04 0.660D-04 0.565D-03 0.533D-03
 Coeff:     -0.409D-03-0.229D-01 0.264D-02 0.105D+00 0.915D+00
 Gap=     0.454 Goal=   None    Shift=    0.000
 RMSDP=3.93D-09 MaxDP=7.01D-08 DE= 5.91D-12 OVMax= 9.15D-08

 SCF Done:  E(RwB97XD) =  -700.125541576     A.U. after   11 cycles
            NFock= 11  Conv=0.39D-08     -V/T= 2.0060
 KE= 6.959190534518D+02 PE=-2.224688465613D+03 EE= 5.439038728472D+02
 Leave Link  502 at Wed Dec 29 11:03:52 2021, MaxMem=   131072000 cpu:              46.4 elap:               6.1
 (Enter /public/scc/g16/g16/l701.exe)
 ... and contract with generalized density number  0.
 Compute integral first derivatives.
 R6Disp: Adding Grimme-D2 dispersion energy 1st derivatives to the gradient.
 Leave Link  701 at Wed Dec 29 11:03:52 2021, MaxMem=   131072000 cpu:               1.2 elap:               0.2
 (Enter /public/scc/g16/g16/l702.exe)
 L702 exits ... SP integral derivatives will be done elsewhere.
 Leave Link  702 at Wed Dec 29 11:03:52 2021, MaxMem=   131072000 cpu:               0.1 elap:               0.0
 (Enter /public/scc/g16/g16/l703.exe)
 Integral derivatives from FoFJK, PRISM(SPDF).
 Compute integral first derivatives, UseDBF=F ICtDFT=           0.
 Calling FoFJK, ICntrl=      2127 FMM=F ISym2X=0 I1Cent= 0 IOpClX= 0 NMat=1 NMatS=1 NMatT=0.
 FoFJK:  IHMeth= 1 ICntrl=    2127 DoSepK=T KAlg= 0 I1Cent=           0 FoldK=F
 IRaf=         1 NMat=       1 IRICut=       1 DoRegI=T DoRafI=F ISym2E= 0 IDoP0=0 IntGTp=1.
 FoFCou: FMM=F IPFlag=           0 FMFlag=      100000 FMFlg1=         800
         NFxFlg=           0 DoJE=F BraDBF=F KetDBF=F FulRan=T
         wScrn=  0.000000 ICntrl=      2527 IOpCl=  0 I1Cent=           0 NGrid=           0
         NMat0=    1 NMatS0=      1 NMatT0=    0 NMatD0=    1 NMtDS0=    0 NMtDT0=    0
 Symmetry not used in FoFCou.
 Leave Link  703 at Wed Dec 29 11:03:54 2021, MaxMem=   131072000 cpu:              16.8 elap:               2.1
 (Enter /public/scc/g16/g16/l716.exe)
 Dipole        = 8.48991078D-04-1.90871887D-03 1.27285211D+00
 ***** Axes restored to original set *****
 -------------------------------------------------------------------
 Center     Atomic                   Forces (Hartrees/Bohr)
 Number     Number              X              Y              Z
 -------------------------------------------------------------------
      1       16           0.000038406    0.000018004   -0.001415940
      2        8           0.007012998    0.002436153    0.005399081
      3        8          -0.000186093    0.009672775   -0.004427695
      4        8          -0.007018721   -0.002448416    0.005373340
      5        8           0.000146350   -0.009682480   -0.004425910
      6        1          -0.000888970   -0.001400546   -0.000251186
      7        1           0.000896031    0.001404509   -0.000251689
 -------------------------------------------------------------------
 Cartesian Forces:  Max     0.009682480 RMS     0.004378626
 Leave Link  716 at Wed Dec 29 11:03:54 2021, MaxMem=   131072000 cpu:               0.2 elap:               0.0
 (Enter /public/scc/g16/g16/l103.exe)

 GradGradGradGradGradGradGradGradGradGradGradGradGradGradGradGradGradGrad
 Berny optimization.
 Using GEDIIS/GDIIS optimizer.
 FormGI is forming the generalized inverse of G from B-inverse, IUseBI=4.
 Internal  Forces:  Max     0.010631660 RMS     0.004299001
 Search for a local minimum.
 Step number   2 out of a maximum of   30
 All quantities printed in internal units (Hartrees-Bohrs-Radians)
 RMS Force = .42990D-02 SwitMx=.10000D-02 MixMth= 1
 Mixed Optimization -- RFO/linear search
 Update second derivatives using D2CorX and points    1    2
 DE= -3.71D-03 DEPred=-2.79D-03 R= 1.33D+00
 TightC=F SS=  1.41D+00  RLast= 9.96D-02 DXNew= 5.0454D-01 2.9870D-01
 Trust test= 1.33D+00 RLast= 9.96D-02 DXMaxT set to 3.00D-01
 The second derivative matrix:
                          R1        R2        R3        R4        R5
           R1           0.39800
           R2          -0.04815   0.82936
           R3          -0.03287  -0.04802   0.39809
           R4          -0.04820  -0.05946  -0.04806   0.82912
           R5          -0.00537  -0.00499  -0.00534  -0.00499   0.52164
           R6          -0.00535  -0.00506  -0.00532  -0.00505  -0.00015
           A1           0.00241   0.00189   0.00239   0.00189  -0.00003
           A2           0.00341   0.00752   0.00342   0.00754   0.00122
           A3          -0.00033   0.00089  -0.00032   0.00089   0.00030
           A4          -0.00028   0.00106  -0.00027   0.00107   0.00034
           A5          -0.00577  -0.00975  -0.00577  -0.00976  -0.00128
           A6           0.00240   0.00201   0.00239   0.00201   0.00000
           A7           0.00875   0.01456   0.00875   0.01458   0.00188
           A8           0.00880   0.01464   0.00879   0.01466   0.00190
           D1          -0.00115  -0.00246  -0.00116  -0.00246  -0.00039
           D2           0.00226   0.00526   0.00227   0.00527   0.00087
           D3          -0.00215  -0.00489  -0.00215  -0.00490  -0.00081
           D4           0.00232   0.00540   0.00233   0.00541   0.00090
           D5          -0.00241  -0.00549  -0.00242  -0.00550  -0.00090
           D6          -0.00097  -0.00203  -0.00097  -0.00204  -0.00032
                          R6        A1        A2        A3        A4
           R6           0.52178
           A1          -0.00002   0.25007
           A2           0.00119  -0.00063   0.25023
           A3           0.00029  -0.00018   0.00035   0.25017
           A4           0.00032  -0.00020   0.00037   0.00018   0.25019
           A5          -0.00127   0.00062   0.00030  -0.00022  -0.00022
           A6           0.00001   0.00005  -0.00059  -0.00016  -0.00018
           A7           0.00186  -0.00090  -0.00050   0.00030   0.00031
           A8           0.00187  -0.00091  -0.00050   0.00031   0.00031
           D1          -0.00038   0.00020  -0.00006  -0.00011  -0.00011
           D2           0.00086  -0.00045   0.00022   0.00026   0.00028
           D3          -0.00079   0.00042  -0.00018  -0.00024  -0.00025
           D4           0.00088  -0.00047   0.00022   0.00027   0.00029
           D5          -0.00088   0.00047  -0.00020  -0.00027  -0.00028
           D6          -0.00031   0.00016  -0.00004  -0.00009  -0.00009
                          A5        A6        A7        A8        D1
           A5           0.24914
           A6           0.00060   0.25003
           A7           0.00133  -0.00088   0.15795
           A8           0.00133  -0.00088  -0.00206   0.15793
           D1          -0.00011   0.00019   0.00018   0.00018   0.01997
           D2           0.00017  -0.00043  -0.00029  -0.00029  -0.00006
           D3          -0.00017   0.00039   0.00029   0.00029   0.00005
           D4           0.00017  -0.00044  -0.00030  -0.00030  -0.00006
           D5          -0.00019   0.00044   0.00033   0.00033   0.00005
           D6          -0.00010   0.00015   0.00016   0.00016   0.00001
                          D2        D3        D4        D5        D6
           D2           0.02015
           D3          -0.00016   0.02010
           D4           0.00019  -0.00017   0.02016
           D5          -0.00018   0.00016  -0.00019   0.02013
           D6          -0.00004   0.00004  -0.00004   0.00004   0.01996
 ITU=  1  0
 Use linear search instead of GDIIS.
     Eigenvalues ---    0.01994   0.01996   0.15002   0.15566   0.15642
     Eigenvalues ---    0.16000   0.16601   0.21440   0.25034   0.34592
     Eigenvalues ---    0.43091   0.52185   0.52228   0.79283   0.88871
 RFO step:  Lambda=-7.62876882D-05 EMin= 1.99396446D-02
 Quartic linear search produced a step of  0.43666.
 Iteration  1 RMS(Cart)=  0.01085046 RMS(Int)=  0.00009211
 Iteration  2 RMS(Cart)=  0.00009363 RMS(Int)=  0.00000352
 Iteration  3 RMS(Cart)=  0.00000000 RMS(Int)=  0.00000352
 ITry= 1 IFail=0 DXMaxC= 1.87D-02 DCOld= 1.00D+10 DXMaxT= 3.00D-01 DXLimC= 3.00D+00 Rises=F
 Variable       Old X    -DE/DX   Delta X   Delta X   Delta X     New X
                                 (Linear)    (Quad)   (Total)
    R1        3.06622  -0.00803  -0.02024  -0.00508  -0.02532   3.04090
    R2        2.72904  -0.01062  -0.01856   0.00169  -0.01687   2.71217
    R3        3.06619  -0.00801  -0.02026  -0.00500  -0.02526   3.04093
    R4        2.72905  -0.01063  -0.01859   0.00171  -0.01688   2.71217
    R5        1.83380  -0.00107  -0.00458   0.00188  -0.00271   1.83109
    R6        1.83380  -0.00107  -0.00451   0.00179  -0.00272   1.83109
    A1        1.84157   0.00003   0.00476  -0.00511  -0.00035   1.84123
    A2        1.77012   0.00056   0.00016   0.00432   0.00447   1.77460
    A3        1.89610   0.00016  -0.00220   0.00396   0.00176   1.89786
    A4        1.89599   0.00019  -0.00229   0.00439   0.00209   1.89808
    A5        2.17783  -0.00074  -0.00434  -0.00159  -0.00593   2.17189
    A6        1.84142   0.00007   0.00457  -0.00446   0.00011   1.84153
    A7        1.88093   0.00236   0.01077   0.00771   0.01847   1.89940
    A8        1.88089   0.00237   0.01081   0.00777   0.01857   1.89946
    D1        2.88839  -0.00053  -0.00224  -0.00657  -0.00882   2.87958
    D2       -1.41864  -0.00010  -0.00307  -0.00184  -0.00490  -1.42354
    D3        0.51610   0.00029   0.00133  -0.00353  -0.00220   0.51390
    D4       -1.41816  -0.00009  -0.00316  -0.00170  -0.00486  -1.42302
    D5        0.51672   0.00025   0.00141  -0.00397  -0.00255   0.51417
    D6        2.88880  -0.00051  -0.00237  -0.00619  -0.00857   2.88024
         Item               Value     Threshold  Converged?
 Maximum Force            0.010632     0.000450     NO 
 RMS     Force            0.004299     0.000300     NO 
 Maximum Displacement     0.018703     0.001800     NO 
 RMS     Displacement     0.010850     0.001200     NO 
 Predicted change in Energy=-4.804292D-04
 Lowest energy point so far.  Saving SCF results.
 GradGradGradGradGradGradGradGradGradGradGradGradGradGradGradGradGradGrad

 Leave Link  103 at Wed Dec 29 11:03:54 2021, MaxMem=   131072000 cpu:               0.1 elap:               0.0
 (Enter /public/scc/g16/g16/l202.exe)
                          Input orientation:                          
 ---------------------------------------------------------------------
 Center     Atomic      Atomic             Coordinates (Angstroms)
 Number     Number       Type             X           Y           Z
 ---------------------------------------------------------------------
      1         16           0        0.000090   -0.000004    0.166765
      2          8           0       -1.246482   -0.052731   -0.849464
      3          8           0        0.003428   -1.269806    0.835680
      4          8           0        1.246710    0.052658   -0.849436
      5          8           0       -0.003730    1.269793    0.835690
      6          1           0       -1.442135    0.847000   -1.151314
      7          1           0        1.442117   -0.847010   -1.151621
 ---------------------------------------------------------------------
                    Distance matrix (angstroms):
                    1          2          3          4          5
     1  S    0.000000
     2  O    1.609175   0.000000
     3  O    1.435220   2.425543   0.000000
     4  O    1.609192   2.495418   2.476747   0.000000
     5  O    1.435221   2.476539   2.539609   2.425833   0.000000
     6  H    2.129498   0.968973   3.243249   2.819929   2.489166
     7  H    2.129555   2.819707   2.489568   0.968970   3.243569
                    6          7
     6  H    0.000000
     7  H    3.344934   0.000000
 Stoichiometry    H2O4S
 Framework group  C1[X(H2O4S)]
 Deg. of freedom    15
 Full point group                 C1      NOp   1
 RotChk:  IX=3 Diff= 3.04D-02
 Largest Abelian subgroup         C1      NOp   1
 Largest concise Abelian subgroup C1      NOp   1
                         Standard orientation:                         
 ---------------------------------------------------------------------
 Center     Atomic      Atomic             Coordinates (Angstroms)
 Number     Number       Type             X           Y           Z
 ---------------------------------------------------------------------
      1         16           0        0.000080   -0.000220   -0.163864
      2          8           0        1.057063   -0.660154    0.854331
      3          8           0       -0.629476   -1.103740   -0.831516
      4          8           0       -1.058689    0.662984    0.850369
      5          8           0        0.631179    1.100882   -0.834048
      6          1           0        1.671347    0.026002    1.155583
      7          1           0       -1.673238   -0.022257    1.153152
 ---------------------------------------------------------------------
 Rotational constants (GHZ):           4.9651335           4.9032882           4.7223014
 Leave Link  202 at Wed Dec 29 11:03:54 2021, MaxMem=   131072000 cpu:               0.1 elap:               0.0
 (Enter /public/scc/g16/g16/l301.exe)
 Standard basis: 6-31++G(d,p) (6D, 7F)
 Ernie: Thresh=  0.10000D-02 Tol=  0.10000D-05 Strict=F.
 There are   111 symmetry adapted cartesian basis functions of A   symmetry.
 There are   111 symmetry adapted basis functions of A   symmetry.
   111 basis functions,   200 primitive gaussians,   111 cartesian basis functions
    25 alpha electrons       25 beta electrons
       nuclear repulsion energy       286.6174929894 Hartrees.
 IExCor= 4639 DFT=T Ex+Corr=wB97XD ExCW=0 ScaHFX=  1.000000
 ScaDFX=  1.000000  1.000000  1.000000  1.000000 ScalE2=  1.000000  1.000000
 IRadAn=      5 IRanWt=     -1 IRanGd=            0 ICorTp=0 IEmpDi=121
 HFx  wShort=  0.000000 wLong=  0.200000 cFull=  0.222036 cShort=  0.000000 cLong=  0.777964
 DFx  wShort=  0.000000 wLong=  0.200000 cFull=  0.000000 cShort=  0.000000 cLong=  1.000000
 NAtoms=    7 NActive=    7 NUniq=    7 SFac= 1.00D+00 NAtFMM=   60 NAOKFM=F Big=F
 Integral buffers will be    131072 words long.
 Raffenetti 2 integral format.
 Two-electron integral symmetry is turned on.
 R6Disp:  Grimme-D2 Dispersion energy=       -0.0012629214 Hartrees.
 Nuclear repulsion after empirical dispersion term =      286.6162300680 Hartrees.
 Leave Link  301 at Wed Dec 29 11:03:54 2021, MaxMem=   131072000 cpu:               0.4 elap:               0.1
 (Enter /public/scc/g16/g16/l302.exe)
 NPDir=0 NMtPBC=     1 NCelOv=     1 NCel=       1 NClECP=     1 NCelD=      1
         NCelK=      1 NCelE2=     1 NClLst=     1 CellRange=     0.0.
 One-electron integrals computed using PRISM.
 One-electron integral symmetry used in STVInt
 NBasis=   111 RedAO= T EigKep=  1.24D-03  NBF=   111
 NBsUse=   111 1.00D-06 EigRej= -1.00D+00 NBFU=   111
 Precomputing XC quadrature grid using
 IXCGrd= 4 IRadAn=           5 IRanWt=          -1 IRanGd=           0 AccXCQ= 0.00D+00.
 Generated NRdTot=       0 NPtTot=           0 NUsed=           0 NTot=          32
 NSgBfM=   111   111   111   111   111 MxSgAt=     7 MxSgA2=     7.
 Leave Link  302 at Wed Dec 29 11:03:54 2021, MaxMem=   131072000 cpu:               1.3 elap:               0.2
 (Enter /public/scc/g16/g16/l303.exe)
 DipDrv:  MaxL=1.
 Leave Link  303 at Wed Dec 29 11:03:55 2021, MaxMem=   131072000 cpu:               0.2 elap:               0.0
 (Enter /public/scc/g16/g16/l401.exe)
 Initial guess from the checkpoint file:  "SA.chk"
 B after Tr=    -0.000000   -0.000000   -0.000000
         Rot=    0.999928    0.001502    0.000642   -0.011876 Ang=   1.37 deg.
 Guess basis will be translated and rotated to current coordinates.
 JPrj=2 DoOrth=T DoCkMO=T.
 Leave Link  401 at Wed Dec 29 11:03:55 2021, MaxMem=   131072000 cpu:               0.7 elap:               0.1
 (Enter /public/scc/g16/g16/l502.exe)
 Keep R1 ints in memory in canonical form, NReq=46114690.
 FoFCou: FMM=F IPFlag=           0 FMFlag=           0 FMFlg1=           0
         NFxFlg=           0 DoJE=F BraDBF=F KetDBF=F FulRan=T
         wScrn=  0.000000 ICntrl=       600 IOpCl=  0 I1Cent=           0 NGrid=           0
         NMat0=    1 NMatS0=   6216 NMatT0=    0 NMatD0=    1 NMtDS0=    0 NMtDT0=    0
 Symmetry not used in FoFCou.
 Two-electron integral symmetry not used.
 Closed shell SCF:
 Using DIIS extrapolation, IDIIS=  1040.
 NGot=   131072000 LenX=    92400398 LenY=    92387636
 Requested convergence on RMS density matrix=1.00D-08 within 128 cycles.
 Requested convergence on MAX density matrix=1.00D-06.
 Requested convergence on             energy=1.00D-06.
 No special actions if energy rises.

 Cycle   1  Pass 1  IDiag  1:
 E= -700.125645449374    
 DIIS: error= 1.41D-03 at cycle   1 NSaved=   1.
 NSaved= 1 IEnMin= 1 EnMin= -700.125645449374     IErMin= 1 ErrMin= 1.41D-03
 ErrMax= 1.41D-03  0.00D+00 EMaxC= 1.00D-01 BMatC= 2.49D-04 BMatP= 2.49D-04
 IDIUse=3 WtCom= 9.86D-01 WtEn= 1.41D-02
 Coeff-Com:  0.100D+01
 Coeff-En:   0.100D+01
 Coeff:      0.100D+01
 Gap=     0.740 Goal=   None    Shift=    0.000
 GapD=    0.740 DampG=2.000 DampE=1.000 DampFc=2.0000 IDamp=-1.
 RMSDP=3.33D-04 MaxDP=8.79D-03              OVMax= 4.81D-03

 Cycle   2  Pass 1  IDiag  1:
 E= -700.125969272338     Delta-E=       -0.000323822964 Rises=F Damp=F
 DIIS: error= 3.76D-04 at cycle   2 NSaved=   2.
 NSaved= 2 IEnMin= 2 EnMin= -700.125969272338     IErMin= 2 ErrMin= 3.76D-04
 ErrMax= 3.76D-04  0.00D+00 EMaxC= 1.00D-01 BMatC= 2.42D-05 BMatP= 2.49D-04
 IDIUse=3 WtCom= 9.96D-01 WtEn= 3.76D-03
 Coeff-Com:  0.424D-01 0.958D+00
 Coeff-En:   0.000D+00 0.100D+01
 Coeff:      0.422D-01 0.958D+00
 Gap=     0.453 Goal=   None    Shift=    0.000
 RMSDP=8.24D-05 MaxDP=1.15D-03 DE=-3.24D-04 OVMax= 1.34D-03

 Cycle   3  Pass 1  IDiag  1:
 E= -700.125986467478     Delta-E=       -0.000017195141 Rises=F Damp=F
 DIIS: error= 3.04D-04 at cycle   3 NSaved=   3.
 NSaved= 3 IEnMin= 3 EnMin= -700.125986467478     IErMin= 3 ErrMin= 3.04D-04
 ErrMax= 3.04D-04  0.00D+00 EMaxC= 1.00D-01 BMatC= 1.23D-05 BMatP= 2.42D-05
 IDIUse=3 WtCom= 9.97D-01 WtEn= 3.04D-03
 Coeff-Com: -0.718D-01 0.424D+00 0.648D+00
 Coeff-En:   0.000D+00 0.000D+00 0.100D+01
 Coeff:     -0.715D-01 0.423D+00 0.649D+00
 Gap=     0.453 Goal=   None    Shift=    0.000
 RMSDP=2.90D-05 MaxDP=6.18D-04 DE=-1.72D-05 OVMax= 5.83D-04

 Cycle   4  Pass 1  IDiag  1:
 E= -700.125995263336     Delta-E=       -0.000008795858 Rises=F Damp=F
 DIIS: error= 5.07D-05 at cycle   4 NSaved=   4.
 NSaved= 4 IEnMin= 4 EnMin= -700.125995263336     IErMin= 4 ErrMin= 5.07D-05
 ErrMax= 5.07D-05  0.00D+00 EMaxC= 1.00D-01 BMatC= 6.47D-07 BMatP= 1.23D-05
 IDIUse=1 WtCom= 1.00D+00 WtEn= 0.00D+00
 Coeff-Com: -0.305D-01 0.116D+00 0.261D+00 0.654D+00
 Coeff:     -0.305D-01 0.116D+00 0.261D+00 0.654D+00
 Gap=     0.454 Goal=   None    Shift=    0.000
 RMSDP=9.31D-06 MaxDP=1.92D-04 DE=-8.80D-06 OVMax= 1.70D-04

 Cycle   5  Pass 1  IDiag  1:
 E= -700.125995772827     Delta-E=       -0.000000509491 Rises=F Damp=F
 DIIS: error= 1.85D-05 at cycle   5 NSaved=   5.
 NSaved= 5 IEnMin= 5 EnMin= -700.125995772827     IErMin= 5 ErrMin= 1.85D-05
 ErrMax= 1.85D-05  0.00D+00 EMaxC= 1.00D-01 BMatC= 5.44D-08 BMatP= 6.47D-07
 IDIUse=1 WtCom= 1.00D+00 WtEn= 0.00D+00
 Coeff-Com:  0.179D-02-0.324D-01-0.204D-01 0.200D+00 0.851D+00
 Coeff:      0.179D-02-0.324D-01-0.204D-01 0.200D+00 0.851D+00
 Gap=     0.454 Goal=   None    Shift=    0.000
 RMSDP=4.98D-06 MaxDP=9.13D-05 DE=-5.09D-07 OVMax= 7.83D-05

 Cycle   6  Pass 1  IDiag  1:
 E= -700.125995823182     Delta-E=       -0.000000050355 Rises=F Damp=F
 DIIS: error= 7.69D-06 at cycle   6 NSaved=   6.
 NSaved= 6 IEnMin= 6 EnMin= -700.125995823182     IErMin= 6 ErrMin= 7.69D-06
 ErrMax= 7.69D-06  0.00D+00 EMaxC= 1.00D-01 BMatC= 1.57D-08 BMatP= 5.44D-08
 IDIUse=1 WtCom= 1.00D+00 WtEn= 0.00D+00
 Coeff-Com:  0.348D-02-0.258D-01-0.308D-01 0.577D-01 0.469D+00 0.527D+00
 Coeff:      0.348D-02-0.258D-01-0.308D-01 0.577D-01 0.469D+00 0.527D+00
 Gap=     0.454 Goal=   None    Shift=    0.000
 RMSDP=1.22D-06 MaxDP=4.77D-05 DE=-5.04D-08 OVMax= 2.44D-05

 Cycle   7  Pass 1  IDiag  1:
 E= -700.125995835095     Delta-E=       -0.000000011912 Rises=F Damp=F
 DIIS: error= 7.72D-07 at cycle   7 NSaved=   7.
 NSaved= 7 IEnMin= 7 EnMin= -700.125995835095     IErMin= 7 ErrMin= 7.72D-07
 ErrMax= 7.72D-07  0.00D+00 EMaxC= 1.00D-01 BMatC= 1.36D-10 BMatP= 1.57D-08
 IDIUse=1 WtCom= 1.00D+00 WtEn= 0.00D+00
 Coeff-Com:  0.225D-03-0.292D-03-0.189D-02-0.130D-01-0.325D-01 0.263D-01
 Coeff-Com:  0.102D+01
 Coeff:      0.225D-03-0.292D-03-0.189D-02-0.130D-01-0.325D-01 0.263D-01
 Coeff:      0.102D+01
 Gap=     0.454 Goal=   None    Shift=    0.000
 RMSDP=4.47D-07 MaxDP=7.56D-06 DE=-1.19D-08 OVMax= 7.76D-06

 Cycle   8  Pass 1  IDiag  1:
 E= -700.125995835431     Delta-E=       -0.000000000337 Rises=F Damp=F
 DIIS: error= 1.81D-07 at cycle   8 NSaved=   8.
 NSaved= 8 IEnMin= 8 EnMin= -700.125995835431     IErMin= 8 ErrMin= 1.81D-07
 ErrMax= 1.81D-07  0.00D+00 EMaxC= 1.00D-01 BMatC= 6.17D-12 BMatP= 1.36D-10
 IDIUse=1 WtCom= 1.00D+00 WtEn= 0.00D+00
 Coeff-Com: -0.142D-03 0.110D-02 0.132D-02-0.250D-02-0.209D-01-0.269D-01
 Coeff-Com:  0.275D-01 0.102D+01
 Coeff:     -0.142D-03 0.110D-02 0.132D-02-0.250D-02-0.209D-01-0.269D-01
 Coeff:      0.275D-01 0.102D+01
 Gap=     0.454 Goal=   None    Shift=    0.000
 RMSDP=7.76D-08 MaxDP=8.50D-07 DE=-3.37D-10 OVMax= 1.60D-06

 Cycle   9  Pass 1  IDiag  1:
 E= -700.125995835454     Delta-E=       -0.000000000022 Rises=F Damp=F
 DIIS: error= 1.14D-07 at cycle   9 NSaved=   9.
 NSaved= 9 IEnMin= 9 EnMin= -700.125995835454     IErMin= 9 ErrMin= 1.14D-07
 ErrMax= 1.14D-07  0.00D+00 EMaxC= 1.00D-01 BMatC= 1.83D-12 BMatP= 6.17D-12
 IDIUse=1 WtCom= 1.00D+00 WtEn= 0.00D+00
 Coeff-Com: -0.695D-04 0.490D-03 0.644D-03-0.579D-03-0.772D-02-0.131D-01
 Coeff-Com: -0.262D-01 0.446D+00 0.601D+00
 Coeff:     -0.695D-04 0.490D-03 0.644D-03-0.579D-03-0.772D-02-0.131D-01
 Coeff:     -0.262D-01 0.446D+00 0.601D+00
 Gap=     0.454 Goal=   None    Shift=    0.000
 RMSDP=1.63D-08 MaxDP=3.05D-07 DE=-2.23D-11 OVMax= 4.41D-07

 Cycle  10  Pass 1  IDiag  1:
 E= -700.125995835446     Delta-E=        0.000000000008 Rises=F Damp=F
 DIIS: error= 5.27D-08 at cycle  10 NSaved=  10.
 NSaved=10 IEnMin= 9 EnMin= -700.125995835454     IErMin=10 ErrMin= 5.27D-08
 ErrMax= 5.27D-08  0.00D+00 EMaxC= 1.00D-01 BMatC= 3.68D-13 BMatP= 1.83D-12
 IDIUse=1 WtCom= 1.00D+00 WtEn= 0.00D+00
 Coeff-Com: -0.150D-05-0.138D-04 0.148D-04 0.323D-03 0.120D-02-0.463D-03
 Coeff-Com: -0.213D-01-0.134D-01 0.312D+00 0.722D+00
 Coeff:     -0.150D-05-0.138D-04 0.148D-04 0.323D-03 0.120D-02-0.463D-03
 Coeff:     -0.213D-01-0.134D-01 0.312D+00 0.722D+00
 Gap=     0.454 Goal=   None    Shift=    0.000
 RMSDP=7.55D-09 MaxDP=1.08D-07 DE= 7.73D-12 OVMax= 2.04D-07

 SCF Done:  E(RwB97XD) =  -700.125995835     A.U. after   10 cycles
            NFock= 10  Conv=0.75D-08     -V/T= 2.0059
 KE= 6.960237379148D+02 PE=-2.228535538411D+03 EE= 5.457695745924D+02
 Leave Link  502 at Wed Dec 29 11:04:00 2021, MaxMem=   131072000 cpu:              42.8 elap:               5.8
 (Enter /public/scc/g16/g16/l701.exe)
 ... and contract with generalized density number  0.
 Compute integral first derivatives.
 R6Disp: Adding Grimme-D2 dispersion energy 1st derivatives to the gradient.
 Leave Link  701 at Wed Dec 29 11:04:01 2021, MaxMem=   131072000 cpu:               1.2 elap:               0.2
 (Enter /public/scc/g16/g16/l702.exe)
 L702 exits ... SP integral derivatives will be done elsewhere.
 Leave Link  702 at Wed Dec 29 11:04:01 2021, MaxMem=   131072000 cpu:               0.1 elap:               0.0
 (Enter /public/scc/g16/g16/l703.exe)
 Integral derivatives from FoFJK, PRISM(SPDF).
 Compute integral first derivatives, UseDBF=F ICtDFT=           0.
 Calling FoFJK, ICntrl=      2127 FMM=F ISym2X=0 I1Cent= 0 IOpClX= 0 NMat=1 NMatS=1 NMatT=0.
 FoFJK:  IHMeth= 1 ICntrl=    2127 DoSepK=T KAlg= 0 I1Cent=           0 FoldK=F
 IRaf=         1 NMat=       1 IRICut=       1 DoRegI=T DoRafI=F ISym2E= 0 IDoP0=0 IntGTp=1.
 FoFCou: FMM=F IPFlag=           0 FMFlag=      100000 FMFlg1=         800
         NFxFlg=           0 DoJE=F BraDBF=F KetDBF=F FulRan=T
         wScrn=  0.000000 ICntrl=      2527 IOpCl=  0 I1Cent=           0 NGrid=           0
         NMat0=    1 NMatS0=      1 NMatT0=    0 NMatD0=    1 NMtDS0=    0 NMtDT0=    0
 Symmetry not used in FoFCou.
 Leave Link  703 at Wed Dec 29 11:04:03 2021, MaxMem=   131072000 cpu:              16.8 elap:               2.1
 (Enter /public/scc/g16/g16/l716.exe)
 Dipole        =-1.34766757D-03 2.33131572D-03 1.30095633D+00
 ***** Axes restored to original set *****
 -------------------------------------------------------------------
 Center     Atomic                   Forces (Hartrees/Bohr)
 Number     Number              X              Y              Z
 -------------------------------------------------------------------
      1       16          -0.000065359   -0.000020136   -0.002601026
      2        8           0.001133623    0.000645592    0.000526279
      3        8           0.000032572   -0.001444028    0.000846174
      4        8          -0.001141049   -0.000620243    0.000568963
      5        8           0.000043635    0.001446313    0.000835982
      6        1          -0.000396957   -0.000272251   -0.000091723
      7        1           0.000393534    0.000264753   -0.000084649
 -------------------------------------------------------------------
 Cartesian Forces:  Max     0.002601026 RMS     0.000895130
 Leave Link  716 at Wed Dec 29 11:04:03 2021, MaxMem=   131072000 cpu:               0.2 elap:               0.0
 (Enter /public/scc/g16/g16/l103.exe)

 GradGradGradGradGradGradGradGradGradGradGradGradGradGradGradGradGradGrad
 Berny optimization.
 Using GEDIIS/GDIIS optimizer.
 FormGI is forming the generalized inverse of G from B-inverse, IUseBI=4.
 Internal  Forces:  Max     0.001672152 RMS     0.000654971
 Search for a local minimum.
 Step number   3 out of a maximum of   30
 All quantities printed in internal units (Hartrees-Bohrs-Radians)
 RMS Force = .65497D-03 SwitMx=.10000D-02 MixMth= 2
 Mixed Optimization -- En-DIIS/RFO-DIIS
 Update second derivatives using D2CorX and points    1    2    3
 DE= -4.54D-04 DEPred=-4.80D-04 R= 9.46D-01
 TightC=F SS=  1.41D+00  RLast= 5.31D-02 DXNew= 5.0454D-01 1.5937D-01
 Trust test= 9.46D-01 RLast= 5.31D-02 DXMaxT set to 3.00D-01
 The second derivative matrix:
                          R1        R2        R3        R4        R5
           R1           0.39269
           R2          -0.03620   0.88544
           R3          -0.03848  -0.03667   0.39217
[...]
     17 -0.435671D-02 -0.764257D-02  0.194463D-01  0.360159D-02 -0.843590D-03
     18 -0.757723D-02 -0.103072D-01  0.188556D-02  0.140864D-01 -0.375410D-02
     19  0.194359D-01  0.359336D-02 -0.435815D-02 -0.764913D-02 -0.104816D-02
     20 -0.173924D-01  0.106288D-01  0.300652D-02 -0.398595D-02  0.476604D-02
                6             7             8             9            10 
      6  0.531875D+00
      7  0.249958D-02  0.143082D+00
      8 -0.391991D-02 -0.492149D-01  0.235200D+00
      9  0.188443D-02 -0.143101D-01 -0.370186D-01  0.140912D+00
     10 -0.716750D-02 -0.482324D-01 -0.370419D-01 -0.204114D-01  0.140948D+00
     11  0.193948D-02 -0.243086D-01 -0.466138D-02 -0.243085D-01 -0.243020D-01
     12  0.339221D-02 -0.164267D-01 -0.492364D-01 -0.482280D-01 -0.143021D-01
     13 -0.478328D-04  0.221398D-01  0.206706D-02 -0.201311D-01  0.218152D-03
     14  0.208938D-01 -0.533104D-02  0.206858D-02  0.217076D-03 -0.201303D-01
     15  0.476786D-02  0.327214D-01 -0.357482D-01  0.326677D-01 -0.705769D-01
     16 -0.375505D-02  0.101530D-01 -0.710480D-03 -0.921869D-02  0.523889D-01
     17 -0.104908D-02 -0.349376D-01  0.354585D-01 -0.295872D-01  0.128951D-01
     18  0.634587D-03 -0.524357D-01 -0.712615D-03  0.523781D-01 -0.921980D-02
     19 -0.843829D-03  0.680312D-01  0.354603D-01  0.128878D-01 -0.295864D-01
     20 -0.106046D-02 -0.116954D-01 -0.357474D-01 -0.705585D-01  0.326682D-01
               11            12            13            14            15 
     11  0.861843D-01
     12 -0.243021D-01  0.143109D+00
     13  0.105330D-02 -0.532940D-02  0.156027D+00
     14  0.105160D-02  0.221441D-01 -0.493192D-03  0.156037D+00
     15  0.371814D-01 -0.116996D-01 -0.255439D-02  0.720305D-02  0.609138D-01
     16  0.315439D-03 -0.524455D-01  0.617553D-02 -0.158652D-01 -0.190750D-01
     17 -0.373613D-01  0.680451D-01 -0.593819D-02  0.977030D-02 -0.363884D-01
     18  0.315711D-03  0.101575D-01 -0.158634D-01  0.617507D-02  0.785300D-02
     19 -0.373654D-01 -0.349371D-01  0.976645D-02 -0.593973D-02  0.357968D-02
     20  0.371846D-01  0.327172D-01  0.720505D-02 -0.255493D-02 -0.976915D-02
               16            17            18            19            20 
     16  0.415103D-01
     17 -0.204203D-01  0.605579D-01
     18 -0.207015D-01  0.875229D-02  0.415027D-01
     19  0.875246D-02 -0.990382D-02 -0.204173D-01  0.605428D-01
     20  0.785249D-02  0.358069D-02 -0.190694D-01 -0.363752D-01  0.608953D-01
 Leave Link  716 at Wed Dec 29 11:05:21 2021, MaxMem=   131072000 cpu:               0.2 elap:               0.0
 (Enter /public/scc/g16/g16/l103.exe)

 GradGradGradGradGradGradGradGradGradGradGradGradGradGradGradGradGradGrad
 Berny optimization.
 Red2BG is reusing G-inverse.
 Internal  Forces:  Max     0.000113194 RMS     0.000039503
 Search for a local minimum.
 Step number   1 out of a maximum of    2
 All quantities printed in internal units (Hartrees-Bohrs-Radians)
 Second derivative matrix not updated -- analytic derivatives used.
 The second derivative matrix:
                          R1        R2        R3        R4        R5
           R1           0.31064
           R2           0.01177   0.70806
           R3           0.01638   0.01346   0.31068
           R4           0.01345   0.00350   0.01178   0.70798
           R5           0.00164  -0.00435  -0.00290  -0.00483   0.53188
           R6          -0.00290  -0.00483   0.00164  -0.00435   0.00047
           A1           0.01991   0.01212  -0.01683  -0.01092   0.00339
           A2           0.02361  -0.01286   0.02361  -0.01286  -0.00392
           A3           0.00580  -0.01104  -0.01583   0.01729  -0.00717
           A4          -0.01582   0.01731   0.00581  -0.01104   0.00188
           A5          -0.00946   0.00198  -0.00946   0.00198   0.00194
           A6          -0.01683  -0.01092   0.01992   0.01213   0.00250
           A7           0.04327   0.00660   0.00116   0.00302   0.02089
           A8           0.00116   0.00303   0.04327   0.00661  -0.00005
           D1           0.00300  -0.00400  -0.01740   0.01062  -0.00106
           D2           0.00188   0.01409  -0.00758  -0.01031   0.00063
           D3          -0.00436  -0.00764   0.01945   0.00360  -0.00084
           D4          -0.00758  -0.01031   0.00189   0.01409  -0.00375
           D5           0.01944   0.00359  -0.00436  -0.00765  -0.00105
           D6          -0.01739   0.01063   0.00301  -0.00399   0.00477
                          R6        A1        A2        A3        A4
           R6           0.53187
           A1           0.00250   0.14308
           A2          -0.00392  -0.04921   0.23520
           A3           0.00188  -0.01431  -0.03702   0.14091
           A4          -0.00717  -0.04823  -0.03704  -0.02041   0.14095
           A5           0.00194  -0.02431  -0.00466  -0.02431  -0.02430
           A6           0.00339  -0.01643  -0.04924  -0.04823  -0.01430
           A7          -0.00005   0.02214   0.00207  -0.02013   0.00022
           A8           0.02089  -0.00533   0.00207   0.00022  -0.02013
           D1           0.00477   0.03272  -0.03575   0.03267  -0.07058
           D2          -0.00376   0.01015  -0.00071  -0.00922   0.05239
           D3          -0.00105  -0.03494   0.03546  -0.02959   0.01290
           D4           0.00063  -0.05244  -0.00071   0.05238  -0.00922
           D5          -0.00084   0.06803   0.03546   0.01289  -0.02959
           D6          -0.00106  -0.01170  -0.03575  -0.07056   0.03267
                          A5        A6        A7        A8        D1
           A5           0.08618
           A6          -0.02430   0.14311
           A7           0.00105  -0.00533   0.15603
           A8           0.00105   0.02214  -0.00049   0.15604
           D1           0.03718  -0.01170  -0.00255   0.00720   0.06091
           D2           0.00032  -0.05245   0.00618  -0.01587  -0.01908
           D3          -0.03736   0.06805  -0.00594   0.00977  -0.03639
           D4           0.00032   0.01016  -0.01586   0.00618   0.00785
           D5          -0.03737  -0.03494   0.00977  -0.00594   0.00358
           D6           0.03718   0.03272   0.00721  -0.00255  -0.00977
                          D2        D3        D4        D5        D6
           D2           0.04151
           D3          -0.02042   0.06056
           D4          -0.02070   0.00875   0.04150
           D5           0.00875  -0.00990  -0.02042   0.06054
           D6           0.00785   0.00358  -0.01907  -0.03638   0.06090
 ITU=  0
     Eigenvalues ---    0.00317   0.00360   0.12611   0.13561   0.17579
     Eigenvalues ---    0.21759   0.22062   0.26160   0.27404   0.35945
     Eigenvalues ---    0.36005   0.53333   0.53368   0.70925   0.71463
 Angle between quadratic step and forces=  54.21 degrees.
 Linear search not attempted -- first point.
 Iteration  1 RMS(Cart)=  0.00010440 RMS(Int)=  0.00000002
 Iteration  2 RMS(Cart)=  0.00000001 RMS(Int)=  0.00000000
 ITry= 1 IFail=0 DXMaxC= 2.10D-04 DCOld= 1.00D+10 DXMaxT= 3.00D-01 DXLimC= 3.00D+00 Rises=F
 Variable       Old X    -DE/DX   Delta X   Delta X   Delta X     New X
                                 (Linear)    (Quad)   (Total)
    R1        3.03644   0.00003   0.00000   0.00014   0.00014   3.03659
    R2        2.71504  -0.00011   0.00000  -0.00016  -0.00016   2.71488
    R3        3.03642   0.00004   0.00000   0.00016   0.00016   3.03658
    R4        2.71504  -0.00011   0.00000  -0.00016  -0.00016   2.71488
    R5        1.83054  -0.00000   0.00000  -0.00000  -0.00000   1.83053
    R6        1.83054  -0.00000   0.00000  -0.00000  -0.00000   1.83053
    A1        1.84299  -0.00001   0.00000  -0.00000  -0.00000   1.84298
    A2        1.77520  -0.00004   0.00000  -0.00016  -0.00016   1.77504
    A3        1.89678  -0.00001   0.00000  -0.00005  -0.00005   1.89672
    A4        1.89670   0.00001   0.00000   0.00002   0.00002   1.89672
    A5        2.17090   0.00001   0.00000   0.00005   0.00005   2.17095
    A6        1.84289   0.00003   0.00000   0.00010   0.00010   1.84299
    A7        1.90526  -0.00001   0.00000  -0.00010  -0.00010   1.90516
    A8        1.90524  -0.00001   0.00000  -0.00008  -0.00008   1.90515
    D1        2.85079  -0.00000   0.00000  -0.00017  -0.00017   2.85061
    D2       -1.45299  -0.00001   0.00000  -0.00022  -0.00022  -1.45321
    D3        0.48585   0.00000   0.00000  -0.00020  -0.00020   0.48565
    D4       -1.45304  -0.00000   0.00000  -0.00018  -0.00018  -1.45322
    D5        0.48588  -0.00002   0.00000  -0.00024  -0.00024   0.48564
    D6        2.85069   0.00002   0.00000  -0.00009  -0.00009   2.85060
         Item               Value     Threshold  Converged?
 Maximum Force            0.000113     0.000450     YES
 RMS     Force            0.000040     0.000300     YES
 Maximum Displacement     0.000210     0.001800     YES
 RMS     Displacement     0.000104     0.001200     YES
 Predicted change in Energy=-3.157791D-08
 Optimization completed.
    -- Stationary point found.
                           ----------------------------
                           !   Optimized Parameters   !
                           ! (Angstroms and Degrees)  !
 --------------------------                            --------------------------
 ! Name  Definition              Value          Derivative Info.                !
 --------------------------------------------------------------------------------
 ! R1    R(1,2)                  1.6068         -DE/DX =    0.0                 !
 ! R2    R(1,3)                  1.4367         -DE/DX =   -0.0001              !
 ! R3    R(1,4)                  1.6068         -DE/DX =    0.0                 !
 ! R4    R(1,5)                  1.4367         -DE/DX =   -0.0001              !
 ! R5    R(2,6)                  0.9687         -DE/DX =    0.0                 !
 ! R6    R(4,7)                  0.9687         -DE/DX =    0.0                 !
 ! A1    A(2,1,3)              105.5954         -DE/DX =    0.0                 !
 ! A2    A(2,1,4)              101.7113         -DE/DX =    0.0                 !
 ! A3    A(2,1,5)              108.6773         -DE/DX =    0.0                 !
 ! A4    A(3,1,4)              108.6732         -DE/DX =    0.0                 !
 ! A5    A(3,1,5)              124.3835         -DE/DX =    0.0                 !
 ! A6    A(4,1,5)              105.5898         -DE/DX =    0.0                 !
 ! A7    A(1,2,6)              109.1633         -DE/DX =    0.0                 !
 ! A8    A(1,4,7)              109.162          -DE/DX =    0.0                 !
 ! D1    D(3,1,2,6)            163.338          -DE/DX =    0.0                 !
 ! D2    D(4,1,2,6)            -83.2503         -DE/DX =    0.0                 !
 ! D3    D(5,1,2,6)             27.8372         -DE/DX =    0.0                 !
 ! D4    D(2,1,4,7)            -83.2533         -DE/DX =    0.0                 !
 ! D5    D(3,1,4,7)             27.8391         -DE/DX =    0.0                 !
 ! D6    D(5,1,4,7)            163.3325         -DE/DX =    0.0                 !
 --------------------------------------------------------------------------------
 GradGradGradGradGradGradGradGradGradGradGradGradGradGradGradGradGradGrad

 Leave Link  103 at Wed Dec 29 11:05:21 2021, MaxMem=   131072000 cpu:               0.1 elap:               0.0
 (Enter /public/scc/g16/g16/l9999.exe)

 ----------------------------------------------------------------------

 Electric dipole moment (input orientation):
 (Debye = 10**-18 statcoulomb cm , SI units = C m)
                  (au)            (Debye)         (10**-30 SI)
   Tot        0.128670D+01      0.327046D+01      0.109091D+02
   x         -0.124620D-03     -0.316753D-03     -0.105657D-02
   y          0.312768D-04      0.794977D-04      0.265176D-03
   z         -0.128670D+01     -0.327046D+01     -0.109091D+02

 Dipole polarizability, Alpha (input orientation).
 (esu units = cm**3 , SI units = C**2 m**2 J**-1)
 Alpha(0;0):
               (au)            (10**-24 esu)      (10**-40 SI)
   iso        0.331118D+02      0.490666D+01      0.545940D+01
   aniso      0.465268D+01      0.689456D+00      0.767123D+00
   xx         0.315319D+02      0.467255D+01      0.519891D+01
   yx        -0.120463D+01     -0.178508D+00     -0.198617D+00
   yy         0.358747D+02      0.531609D+01      0.591494D+01
   zx         0.757218D-03      0.112208D-03      0.124848D-03
   zy         0.000000D+00      0.000000D+00      0.000000D+00
   zz         0.319288D+02      0.473135D+01      0.526434D+01

 ----------------------------------------------------------------------

 Dipole orientation:
    16         -0.00008367          0.00005734         -0.30272785
     8         -2.35300783          0.09202600          1.61436970
     8          0.00375718          2.40155096         -1.56932272
     8          2.35325667         -0.09197635          1.61383015
     8         -0.00392279         -2.40142393         -1.56934315
     1         -2.75751089         -1.61059520          2.15132909
     1          2.75790735          1.61064954          2.15066517

 Electric dipole moment (dipole orientation):
 (Debye = 10**-18 statcoulomb cm , SI units = C m)
                  (au)            (Debye)         (10**-30 SI)
   Tot        0.128670D+01      0.327046D+01      0.109091D+02
   x          0.000000D+00      0.000000D+00      0.000000D+00
   y          0.000000D+00      0.000000D+00      0.000000D+00
   z          0.128670D+01      0.327046D+01      0.109091D+02

 Dipole polarizability, Alpha (dipole orientation).
 (esu units = cm**3 , SI units = C**2 m**2 J**-1)
 Alpha(0;0):
               (au)            (10**-24 esu)      (10**-40 SI)
   iso        0.331118D+02      0.490666D+01      0.545940D+01
   aniso      0.465268D+01      0.689456D+00      0.767123D+00
   xx         0.315319D+02      0.467255D+01      0.519891D+01
   yx         0.120463D+01      0.178508D+00      0.198617D+00
   yy         0.358747D+02      0.531609D+01      0.591494D+01
   zx        -0.748066D-03     -0.110852D-03     -0.123339D-03
   zy        -0.215859D-03     -0.319870D-04     -0.355903D-04
   zz         0.319288D+02      0.473135D+01      0.526434D+01

 ----------------------------------------------------------------------
 1\1\GINC-NODE25\Freq\RwB97XD\6-31++G(d,p)\H2O4S1\ROOT\29-Dec-2021\0\\#
 P Geom=AllCheck Guess=TCheck SCRF=Check GenChk RwB97XD/6-31++G(d,p) Fr
 eq\\aaaaa\\0,1\S,-0.0000287611,-0.0000342378,0.1601966838\O,-1.2452408
 554,-0.048677295,-0.8541682393\O,0.002068642,-1.2708662269,0.830418730
 2\O,1.2452070812,0.0486925508,-0.8541215614\O,-0.0019954171,1.27075863
 11,0.8304917175\H,-1.4593221733,0.8523179442,-1.1382722756\H,1.4593114
 837,-0.8522913664,-1.1382450552\\Version=ES64L-G16RevA.03\State=1-A\HF
 =-700.1260156\RMSD=4.709e-09\RMSF=5.523e-05\ZeroPoint=0.039436\Thermal
 =0.044605\Dipole=-0.0001246,0.0000313,-1.2866961\DipoleDeriv=2.6068335
 ,-0.1438613,-0.0000137,-0.0864892,2.5096819,-0.0000166,-0.0000091,-0.0
 000085,2.5168187,-1.0626673,0.0869759,-0.3641775,0.1379124,-0.4966588,
 0.0791606,-0.4429054,0.0240811,-0.8942327,-0.6008065,0.0254113,0.02912
 4,-0.0071705,-1.0284501,0.294625,0.0431692,0.1483664,-0.7271576,-1.062
 6804,0.0869483,0.3642044,0.1378454,-0.4966312,-0.0790979,0.442877,-0.0
 240507,-0.8942178,-0.6008107,0.0253597,-0.0291372,-0.0071101,-1.028412
 1,-0.2946439,-0.0431201,-0.1483873,-0.7271875,0.3600678,-0.0404192,-0.
 0023874,-0.0875053,0.2702481,-0.0525651,0.0023679,-0.0073882,0.3629894
 ,0.3600637,-0.0404147,0.0023874,-0.0874826,0.2702223,0.0525379,-0.0023
 796,0.0073873,0.3629875\Polar=31.5319327,-1.2046348,35.8747243,0.00075
 72,-0.0000033,31.9287603\Quadrupole=1.781849,-1.7680605,-0.0137886,-4.
 2559109,-0.000034,-0.0002015\PG=C01 [X(H2O4S1)]\NImag=0\\0.51949193,-0
 .02242154,1.28880207,0.00001029,-0.00001996,0.71803833,-0.16168652,-0.
 02019180,-0.08439747,0.24039933,0.00877936,-0.10472259,0.00879493,-0.0
 9045826,0.55088836,-0.08247244,-0.01460304,-0.13568785,0.16139095,-0.1
 2900675,0.19379472,-0.08672723,-0.00258544,0.00483966,0.00006129,0.028
 42866,-0.01969876,0.06766247,0.00028189,-0.54321094,0.23212847,0.00229
 396,-0.00429712,0.00716389,0.00091569,0.56185660,0.00375844,0.22742982
 ,-0.21460012,-0.00792996,0.03318694,-0.00649537,-0.00004116,-0.2691034
 9,0.21300417,-0.16171161,-0.02020095,0.08440987,-0.03293699,0.00417369
 ,0.00852296,0.00113066,-0.00237628,0.01259795,0.24043957,0.00877152,-0
 .10471957,-0.00878742,0.00417477,0.01536468,0.00006049,-0.02341476,0.0
 0464724,0.02706644,-0.09045691,0.55088263,0.08247877,0.01460652,-0.135
 68778,-0.00852494,-0.00006065,0.01440945,0.02455974,0.00794811,-0.0089
 3740,-0.16141360,0.12900950,0.19381288,-0.08671790,-0.00262980,-0.0048
 6394,0.00113173,-0.02340950,-0.02455558,0.01784612,0.00099304,0.000114
 39,0.00005694,0.02843135,0.01970825,0.06765682,0.00025204,-0.54312246,
 -0.23211480,-0.00237337,0.00465366,-0.00793996,0.00098777,-0.01920551,
 -0.01845557,0.00229578,-0.00430186,-0.00717135,0.00094609,0.56176538,-
 0.00377525,-0.22741482,-0.21460180,-0.01259589,-0.02706026,-0.00893467
 ,-0.00011677,0.01845419,0.01722574,0.00793428,-0.03319639,-0.00650481,
 0.00005373,0.26909209,0.21301400,-0.01132397,0.03401417,-0.01598761,-0
 .04505781,0.07587967,-0.04227413,-0.00122242,-0.00098268,-0.00361521,-
 0.00191085,-0.00339366,0.00091290,0.00124888,-0.00112590,0.00488385,0.
 05788015,0.00216882,0.00348648,0.00354113,0.11036398,-0.46160375,0.144
 02532,-0.00195735,0.00425030,-0.00368962,-0.00380920,-0.00028323,-0.00
 029984,-0.00237463,-0.00403990,-0.00356495,-0.10456997,0.45860419,-0.0
 1246186,0.03007882,-0.00873104,-0.04544608,0.11325474,-0.05505538,-0.0
 0505996,0.00046939,-0.00316232,0.00249677,-0.00089085,-0.00203080,0.00
 448230,-0.00294000,0.00296526,0.05603453,-0.13999203,0.06574086,-0.011
 32470,0.03401536,0.01598921,-0.00191104,-0.00339361,-0.00091299,0.0012
 4911,-0.00112562,-0.00488446,-0.04506771,0.07588769,0.04227888,-0.0012
 2258,-0.00098241,0.00361605,0.00038602,0.00017836,-0.00004571,0.057890
 90,0.00216791,0.00348701,-0.00354234,-0.00380928,-0.00028324,0.0003000
 5,-0.00237458,-0.00404057,0.00356548,0.11037387,-0.46158990,-0.1440322
 8,-0.00195655,0.00425068,0.00369013,0.00017838,-0.00041411,0.00001993,
 -0.10457975,0.45859013,0.01246205,-0.03007734,-0.00872975,-0.00249661,
 0.00089104,-0.00203089,-0.00448275,0.00293944,0.00296529,0.04545176,-0
 .11326176,-0.05506154,0.00506085,-0.00047040,-0.00316373,0.00004567,-0
 .00002001,0.00027341,-0.05604097,0.13999903,0.06574720\\-0.00002126,-0
 .00000595,-0.00018356,0.00002120,0.00000013,0.00003122,0.00001339,-0.0
 0009679,0.00005899,-0.00002341,0.00000776,0.00004625,0.00001213,0.0000
 9677,0.00005486,-0.00000618,-0.00000662,-0.00000497,0.00000413,0.00000
 471,-0.00000278\\\@


 I WOULD TAKE COUNSEL OF MYSELF.
 I WOULD STOP AND LOOK WITHIN
 AND LOOKING WITHIN, LOOK BACK, ALSO
 THAT I MAY LOOK AHEAD WITH CLEARER UNDERSTANDING
 OF THE WAY I HAVE BEEN MOVING, AND IN WHAT DIRECTION.
 I NEED TO KNOW IF I AM GOING FORWARD OR RETREATING,
 WHETHER I HAVE BEEN WASTING, OR ENJOYING
 THE PRECIOUS MOMENTS OF LIFE.  THERE HAVE BEEN FRICTIONS,
 ANNOYANCES AND SOMETIMES WRATH,
 BUT WERE THEY BECAUSE I WAS RIGHT AND OTHERS WRONG.....
 HAVE I HAD MY THOUGHTS TOO SHARPLY FOCUSED
 ON THAT WHICH PLEASED ME, SERVED MY SELF-ESTEEM,
 UNDERGIRDED MY SECURITY,
 OF WHICH I DID NOT INQUIRE WHETHER IT SERVED OR HAMPERED OTHERS.....
 HAVE I BEEN TRYING TO STOP THE CLOCK
 TO HOLD THE WORLD
 IN PERPETUATION OF WHAT WAS AN IS ALREADY SLIPPING AWAY.....
 HAVE I BEEN CRITICAL OF OTHERS FOR WHAT REALLY NEEDED CHANGING IN ME...
 LET ME INDEED TAKE COUNSEL OF MYSELF
 AND SET MY DIRECTIONS STRAIGHT.

                          R.T. WESTON AS ADAPTED BY D. OSBORN 1967
 Job cpu time:       0 days  0 hours  5 minutes  1.0 seconds.
 Elapsed time:       0 days  0 hours  0 minutes 38.0 seconds.
 File lengths (MBytes):  RWF=     16 Int=      0 D2E=      0 Chk=      3 Scr=      1
 Normal termination of Gaussian 16 at Wed Dec 29 11:05:21 2021.
