 *******************************************************************************
 ** Site#: 20203        For non-commercial use only    Version 18.305L 64BITS **
 *******************************************************************************
 ** Cite this program as: MOPAC2016, Version: 18.305L, James J. P. Stewart,   **
 ** Stewart Computational Chemistry, web-site: HTTP://OpenMOPAC.net.          **
 *******************************************************************************
 **                                                                           **
 **                                MOPAC2016                                  **
 **                                                                           **
 *******************************************************************************

                              PM7 CALCULATION RESULTS

 *******************************************************************************
 *  CALCULATION DONE:                                Thu Jun  9 18:41:14 2022  *
 *  PM7        - The PM7 Hamiltonian to be used
 *  T=         - A TIME OF 172800.0 SECONDS REQUESTED
 *  DUMP=N     - RESTART FILE WRITTEN EVERY  7200.000 SECONDS
 *******************************************************************************
PM7
 aaaa
 sdfsd
   ATOM   CHEMICAL          X               Y               Z
  NUMBER   SYMBOL      (ANGSTROMS)     (ANGSTROMS)     (ANGSTROMS)
 
     1       C          1.63530000  *   0.01074000  *   0.02320000  *
     2       C          0.69715000  *  -1.08076000  *  -0.45179000  *
     3       C         -0.69213000  *  -1.09004000  *   0.18104000  *
     4       C         -1.49964000  *   0.13804000  *  -0.17329000  *
     5       O          2.58591000  *   0.41325000  *  -0.59179000  *
     6       O          1.32103000  *   0.46336000  *   1.26328000  *
     7       O         -1.13337000  *   1.04029000  *  -0.88141000  *
     8       O         -2.72187000  *   0.10850000  *   0.40594000  *
     9       H          0.63919000  *  -0.98585000  *  -1.53634000  *
    10       H          1.19859000  *  -2.03168000  *  -0.24174000  *
    11       H         -0.63530000  *  -1.15288000  *   1.26992000  *
    12       H         -1.25736000  *  -1.96718000  *  -0.14866000  *
    13       H          1.97378000  *   1.14624000  *   1.47793000  *
    14       H         -3.17658000  *   0.92028000  *   0.13574000  *
 


          CARTESIAN COORDINATES 

    NO.       ATOM           X           Y           Z

     1         C          1.6353      0.0107      0.0232
     2         C          0.6972     -1.0808     -0.4518
     3         C         -0.6921     -1.0900      0.1810
     4         C         -1.4996      0.1380     -0.1733
     5         O          2.5859      0.4133     -0.5918
     6         O          1.3210      0.4634      1.2633
     7         O         -1.1334      1.0403     -0.8814
     8         O         -2.7219      0.1085      0.4059
     9         H          0.6392     -0.9859     -1.5363
    10         H          1.1986     -2.0317     -0.2417
    11         H         -0.6353     -1.1529      1.2699
    12         H         -1.2574     -1.9672     -0.1487
    13         H          1.9738      1.1462      1.4779
    14         H         -3.1766      0.9203      0.1357

 General Reference for PM7:
 "Optimization of Parameters for Semiempirical Methods VI: More Modifications to the 
 NDDO Approximations and Re-optimization of Parameters", J. J. P. Stewart, J. Mol. Mod., 1:32, 19 (2013)
 http://www.springerlink.com/openurl.asp?genre=article&id=doi:10.1007/s00894-012-1667-x

           Empirical Formula: C4 H6 O4  =    14 atoms



      MOLECULAR POINT GROUP   :   C1  


      RHF CALCULATION, NO. OF DOUBLY OCCUPIED LEVELS = 23


          Geometry optimization using EF

          DIAGONAL MATRIX USED AS START HESSIAN

 CYCLE:     1 TIME:   0.008 TIME LEFT:  2.00D  GRAD.:    75.484 HEAT: -188.6189
 CYCLE:     2 TIME:   0.016 TIME LEFT:  2.00D  GRAD.:    67.421 HEAT: -190.1462
 CYCLE:     3 TIME:   0.008 TIME LEFT:  2.00D  GRAD.:    70.202 HEAT: -190.4242
 CYCLE:     4 TIME:   0.008 TIME LEFT:  2.00D  GRAD.:    55.272 HEAT: -191.5944
 CYCLE:     5 TIME:   0.008 TIME LEFT:  2.00D  GRAD.:    56.474 HEAT: -191.6623
 CYCLE:     6 TIME:   0.008 TIME LEFT:  2.00D  GRAD.:    30.439 HEAT: -192.0741
 CYCLE:     7 TIME:   0.008 TIME LEFT:  2.00D  GRAD.:    16.947 HEAT: -192.2526
 CYCLE:     8 TIME:   0.008 TIME LEFT:  2.00D  GRAD.:    19.847 HEAT: -192.2813
 CYCLE:     9 TIME:   0.008 TIME LEFT:  2.00D  GRAD.:    11.188 HEAT: -192.3776
 CYCLE:    10 TIME:   0.000 TIME LEFT:  2.00D  GRAD.:    18.793 HEAT: -192.3783
 CYCLE:    11 TIME:   0.008 TIME LEFT:  2.00D  GRAD.:    11.011 HEAT: -192.4753
 CYCLE:    12 TIME:   0.008 TIME LEFT:  2.00D  GRAD.:     9.738 HEAT: -192.5103
 CYCLE:    13 TIME:   0.008 TIME LEFT:  2.00D  GRAD.:     5.400 HEAT: -192.5606
 CYCLE:    14 TIME:   0.000 TIME LEFT:  2.00D  GRAD.:     6.821 HEAT: -192.6029
 CYCLE:    15 TIME:   0.008 TIME LEFT:  2.00D  GRAD.:     6.203 HEAT: -192.6607
 CYCLE:    16 TIME:   0.000 TIME LEFT:  2.00D  GRAD.:     4.452 HEAT: -192.7211
 CYCLE:    17 TIME:   0.008 TIME LEFT:  2.00D  GRAD.:     5.384 HEAT: -192.7552
 CYCLE:    18 TIME:   0.008 TIME LEFT:  2.00D  GRAD.:     4.735 HEAT: -192.7741
 CYCLE:    19 TIME:   0.000 TIME LEFT:  2.00D  GRAD.:     3.910 HEAT: -192.8028
 CYCLE:    20 TIME:   0.008 TIME LEFT:  2.00D  GRAD.:     3.446 HEAT: -192.8220
 CYCLE:    21 TIME:   0.000 TIME LEFT:  2.00D  GRAD.:     2.852 HEAT: -192.8320
 CYCLE:    22 TIME:   0.008 TIME LEFT:  2.00D  GRAD.:     2.629 HEAT: -192.8461
 CYCLE:    23 TIME:   0.000 TIME LEFT:  2.00D  GRAD.:     2.329 HEAT: -192.8628
 CYCLE:    24 TIME:   0.008 TIME LEFT:  2.00D  GRAD.:     1.727 HEAT: -192.8676
 CYCLE:    25 TIME:   0.000 TIME LEFT:  2.00D  GRAD.:     1.554 HEAT: -192.8725
 CYCLE:    26 TIME:   0.008 TIME LEFT:  2.00D  GRAD.:     1.656 HEAT: -192.8780
 CYCLE:    27 TIME:   0.000 TIME LEFT:  2.00D  GRAD.:     1.762 HEAT: -192.8847
 CYCLE:    28 TIME:   0.008 TIME LEFT:  2.00D  GRAD.:     1.968 HEAT: -192.8946
 CYCLE:    29 TIME:   0.000 TIME LEFT:  2.00D  GRAD.:     2.115 HEAT: -192.9036
 CYCLE:    30 TIME:   0.008 TIME LEFT:  2.00D  GRAD.:     2.507 HEAT: -192.9140
 CYCLE:    31 TIME:   0.000 TIME LEFT:  2.00D  GRAD.:     2.031 HEAT: -192.9215
 CYCLE:    32 TIME:   0.008 TIME LEFT:  2.00D  GRAD.:     2.204 HEAT: -192.9342
 CYCLE:    33 TIME:   0.000 TIME LEFT:  2.00D  GRAD.:     1.945 HEAT: -192.9416
 CYCLE:    34 TIME:   0.000 TIME LEFT:  2.00D  GRAD.:     2.960 HEAT: -192.9563
 CYCLE:    35 TIME:   0.008 TIME LEFT:  2.00D  GRAD.:     2.262 HEAT: -192.9665
 CYCLE:    36 TIME:   0.000 TIME LEFT:  2.00D  GRAD.:     6.779 HEAT: -192.9744
 CYCLE:    37 TIME:   0.008 TIME LEFT:  2.00D  GRAD.:     2.549 HEAT: -192.9926
 CYCLE:    38 TIME:   0.000 TIME LEFT:  2.00D  GRAD.:     1.875 HEAT: -192.9981
 CYCLE:    39 TIME:   0.008 TIME LEFT:  2.00D  GRAD.:     2.655 HEAT: -193.0115
 CYCLE:    40 TIME:   0.000 TIME LEFT:  2.00D  GRAD.:     2.932 HEAT: -193.0204
 CYCLE:    41 TIME:   0.016 TIME LEFT:  2.00D  GRAD.:     2.449 HEAT: -193.0434
 CYCLE:    42 TIME:   0.000 TIME LEFT:  2.00D  GRAD.:     6.206 HEAT: -193.0341
 CYCLE:    43 TIME:   0.008 TIME LEFT:  2.00D  GRAD.:     4.403 HEAT: -193.0480
 CYCLE:    44 TIME:   0.000 TIME LEFT:  2.00D  GRAD.:     8.215 HEAT: -193.0426
 CYCLE:    45 TIME:   0.000 TIME LEFT:  2.00D  GRAD.:     3.250 HEAT: -193.0541
 CYCLE:    46 TIME:   0.008 TIME LEFT:  2.00D  GRAD.:     1.398 HEAT: -193.0595
 CYCLE:    47 TIME:   0.000 TIME LEFT:  2.00D  GRAD.:     0.574 HEAT: -193.0611

     GRADIENT =  0.57373  IS LESS THAN CUTOFF =  1.00000



 -------------------------------------------------------------------------------
 PM7
 aaaa
 sdfsd


     GEOMETRY OPTIMISED USING EIGENVECTOR FOLLOWING (EF).     
     SCF FIELD WAS ACHIEVED                                   


                              PM7 CALCULATION
                                                       MOPAC2016 (Version: 18.305L)
                                                       Thu Jun  9 18:41:14 2022




          FINAL HEAT OF FORMATION =       -193.06110 KCAL/MOL =    -807.76763 KJ/MOL


          TOTAL ENERGY            =      -1754.75788 EV
          ELECTRONIC ENERGY       =      -6780.28071 EV  POINT GROUP:     C1  
          CORE-CORE REPULSION     =       5025.52283 EV
          COSMO AREA              =        141.67 SQUARE ANGSTROMS
          COSMO VOLUME            =        131.86 CUBIC ANGSTROMS

          GRADIENT NORM           =          0.57373 = 0.15334 PER ATOM
          IONIZATION POTENTIAL    =         11.320178 EV
          HOMO LUMO ENERGIES (EV) =        -11.320  0.738
          NO. OF FILLED LEVELS    =         23
          MOLECULAR WEIGHT        =        118.0890

          MOLECULAR DIMENSIONS (Angstroms)

            Atom       Atom       Distance
            H    14    O     5     6.00646
            H    13    H    12     3.95272
            H    11    O     7     3.11794


          SCF CALCULATIONS        =         57
 
          WALL-CLOCK TIME         =          0.281 SECONDS
          COMPUTATION TIME        =          0.212 SECONDS




   ATOM   CHEMICAL          X               Y               Z
  NUMBER   SYMBOL      (ANGSTROMS)     (ANGSTROMS)     (ANGSTROMS)
 
     1       C          1.66705702  *  -0.02048158  *   0.04906956  *
     2       C          0.69447481  *  -0.99996790  *  -0.53273252  *
     3       C         -0.65255755  *  -1.03823799  *   0.18104515  *
     4       C         -1.50903415  *   0.11792299  *  -0.23368551  *
     5       O          2.71401365  *   0.33405149  *  -0.42386454  *
     6       O          1.25973846  *   0.45004823  *   1.25657828  *
     7       O         -1.34669667  *   0.89931789  *  -1.13218853  *
     8       O         -2.60982058  *   0.18642777  *   0.56029624  *
     9       H          0.55480412  *  -0.75062346  *  -1.61606131  *
    10       H          1.16594014  *  -2.00953238  *  -0.52583657  *
    11       H         -0.52327131  *  -1.03536875  *   1.29139739  *
    12       H         -1.19016438  *  -1.98816528  *  -0.03769132  *
    13       H          1.88119026  *   1.11442334  *   1.64847722  *
    14       H         -3.21343294  *   0.93745947  *   0.33697011  *

                             CARTESIAN COORDINATES

   1    C        1.667057023    -0.020481579     0.049069555
   2    C        0.694474808    -0.999967902    -0.532732521
   3    C       -0.652557545    -1.038237989     0.181045150
   4    C       -1.509034150     0.117922994    -0.233685508
   5    O        2.714013654     0.334051492    -0.423864542
   6    O        1.259738463     0.450048235     1.256578282
   7    O       -1.346696667     0.899317894    -1.132188528
   8    O       -2.609820584     0.186427773     0.560296239
   9    H        0.554804116    -0.750623458    -1.616061314
  10    H        1.165940142    -2.009532381    -0.525836573
  11    H       -0.523271313    -1.035368750     1.291397393
  12    H       -1.190164382    -1.988165280    -0.037691320
  13    H        1.881190255     1.114423335     1.648477218
  14    H       -3.213432939     0.937459469     0.336970105


           Empirical Formula: C4 H6 O4  =    14 atoms



      MOLECULAR POINT GROUP   :   C1  


                  EIGENVALUES  
 -31.95455 -31.68347 -30.13311 -30.10875 -28.89082 -24.91236 -21.53821 -20.15617
 -18.09543 -17.50763 -17.11101 -16.80347 -15.92212 -15.74326 -14.52879 -14.08459
 -13.73129 -13.35550 -13.13230 -12.32315 -12.28207 -11.41037 -11.32018   0.73784
   0.75816   1.68733   1.79189   2.61317   3.11896   3.52435   4.35424   4.45149
   4.53307   4.58876   5.15255   5.26864   5.41126   5.60877


              NET ATOMIC CHARGES AND DIPOLE CONTRIBUTIONS

  ATOM NO.   TYPE          CHARGE      No. of ELECS.   s-Pop       p-Pop       
    1          C           0.646804        3.3532     1.11500     2.23820
    2          C          -0.329822        4.3298     1.06448     3.26534
    3          C          -0.326849        4.3268     1.06230     3.26454
    4          C           0.649870        3.3501     1.11604     2.23409
    5          O          -0.499286        6.4993     1.87678     4.62250
    6          O          -0.564165        6.5642     1.83883     4.72533
    7          O          -0.502763        6.5028     1.87634     4.62642
    8          O          -0.565051        6.5651     1.83869     4.72636
    9          H           0.202678        0.7973     0.79732
   10          H           0.183164        0.8168     0.81684
   11          H           0.205367        0.7946     0.79463
   12          H           0.181889        0.8181     0.81811
   13          H           0.359918        0.6401     0.64008
   14          H           0.358245        0.6418     0.64175
 DIPOLE           X         Y         Z       TOTAL
 POINT-CHG.    -1.461    -2.897     1.442     3.551
 HYBRID        -0.053     0.812     0.169     0.831
 SUM           -1.514    -2.085     1.611     3.039


          ATOMIC ORBITAL ELECTRON POPULATIONS

     Atom    s        px        py        pz   
    1  C   1.11500   0.78262   0.73623   0.71935
    2  C   1.06448   1.01054   1.11696   1.13784
    3  C   1.06230   1.01141   1.08616   1.16698
    4  C   1.11604   0.73716   0.78249   0.71444
    5  O   1.87678   1.33189   1.60799   1.68262
    6  O   1.83883   1.61338   1.64486   1.46710
    7  O   1.87634   1.75553   1.48272   1.38817
    8  O   1.83869   1.46259   1.60950   1.65427
    9  H   0.79732
   10  H   0.81684
   11  H   0.79463
   12  H   0.81811
   13  H   0.64008
   14  H   0.64175

 **********************
 *                    *
 * JOB ENDED NORMALLY *
 *                    *
 **********************



 TOTAL JOB TIME:             0.29 SECONDS

 == MOPAC DONE ==
