 Entering Gaussian System, Link 0=g16
 Initial command:
 /public/scc/g16/g16/l1.exe "/tmp/248981.node01/Gau-32681.inp" -scrdir="/tmp/248981.node01/"
 Entering Link 1 = /public/scc/g16/g16/l1.exe PID=     32687.
  
 Copyright (c) 1988,1990,1992,1993,1995,1998,2003,2009,2016,
            Gaussian, Inc.  All Rights Reserved.
  
 This is part of the Gaussian(R) 16 program.  It is based on
 the Gaussian(R) 09 system (copyright 2009, Gaussian, Inc.),
 the Gaussian(R) 03 system (copyright 2003, Gaussian, Inc.),
 the Gaussian(R) 98 system (copyright 1998, Gaussian, Inc.),
 the Gaussian(R) 94 system (copyright 1995, Gaussian, Inc.),
 the Gaussian 92(TM) system (copyright 1992, Gaussian, Inc.),
 the Gaussian 90(TM) system (copyright 1990, Gaussian, Inc.),
 the Gaussian 88(TM) system (copyright 1988, Gaussian, Inc.),
 the Gaussian 86(TM) system (copyright 1986, Carnegie Mellon
 University), and the Gaussian 82(TM) system (copyright 1983,
 Carnegie Mellon University). Gaussian is a federally registered
 trademark of Gaussian, Inc.
  
 This software contains proprietary and confidential information,
 including trade secrets, belonging to Gaussian, Inc.
  
 This software is provided under written license and may be
 used, copied, transmitted, or stored only in accord with that
 written license.
  
 The following legend is applicable only to US Government
 contracts under FAR:
  
                    RESTRICTED RIGHTS LEGEND
  
 Use, reproduction and disclosure by the US Government is
 subject to restrictions as set forth in subparagraphs (a)
 and (c) of the Commercial Computer Software - Restricted
 Rights clause in FAR 52.227-19.
  
 Gaussian, Inc.
 340 Quinnipiac St., Bldg. 40, Wallingford CT 06492
  
  
 ---------------------------------------------------------------
 Warning -- This program may not be used in any manner that
 competes with the business of Gaussian, Inc. or will provide
 assistance to any competitor of Gaussian, Inc.  The licensee
 of this program is prohibited from giving any competitor of
 Gaussian, Inc. access to this program.  By using this program,
 the user acknowledges that Gaussian, Inc. is engaged in the
 business of creating and licensing software in the field of
 computational chemistry and represents and warrants to the
 licensee that it is not a competitor of Gaussian, Inc. and that
 it will not use this program in any manner prohibited above.
 ---------------------------------------------------------------
  

 Cite this work as:
 Gaussian 16, Revision A.03,
 M. J. Frisch, G. W. Trucks, H. B. Schlegel, G. E. Scuseria, 
 M. A. Robb, J. R. Cheeseman, G. Scalmani, V. Barone, 
 G. A. Petersson, H. Nakatsuji, X. Li, M. Caricato, A. V. Marenich, 
 J. Bloino, B. G. Janesko, R. Gomperts, B. Mennucci, H. P. Hratchian, 
 J. V. Ortiz, A. F. Izmaylov, J. L. Sonnenberg, D. Williams-Young, 
 F. Ding, F. Lipparini, F. Egidi, J. Goings, B. Peng, A. Petrone, 
 T. Henderson, D. Ranasinghe, V. G. Zakrzewski, J. Gao, N. Rega, 
 G. Zheng, W. Liang, M. Hada, M. Ehara, K. Toyota, R. Fukuda, 
 J. Hasegawa, M. Ishida, T. Nakajima, Y. Honda, O. Kitao, H. Nakai, 
 T. Vreven, K. Throssell, J. A. Montgomery, Jr., J. E. Peralta, 
 F. Ogliaro, M. J. Bearpark, J. J. Heyd, E. N. Brothers, K. N. Kudin, 
 V. N. Staroverov, T. A. Keith, R. Kobayashi, J. Normand, 
 K. Raghavachari, A. P. Rendell, J. C. Burant, S. S. Iyengar, 
 J. Tomasi, M. Cossi, J. M. Millam, M. Klene, C. Adamo, R. Cammi, 
 J. W. Ochterski, R. L. Martin, K. Morokuma, O. Farkas, 
 J. B. Foresman, and D. J. Fox, Gaussian, Inc., Wallingford CT, 2016.
 
 ******************************************
 Gaussian 16:  ES64L-G16RevA.03 25-Dec-2016
                29-Dec-2021 
 ******************************************
 %chk=W.chk
 %nproc=8
 Will use up to    8 processors via shared memory.
 %mem=1000MB
 -------------------------------
 #p wB97XD/6-31++G(d,p) opt freq
 -------------------------------
 1/18=20,19=15,26=3,38=1/1,3;
 2/9=110,12=2,17=6,18=5,40=1/2;
 3/5=1,6=6,7=1111,11=2,25=1,30=1,71=1,74=-58/1,2,3;
 4//1;
 5/5=2,38=5/2;
 6/7=2,8=2,9=2,10=2,28=1/1;
 7//1,2,3,16;
 1/18=20,19=15,26=3/3(2);
 2/9=110/2;
 99//99;
 2/9=110/2;
 3/5=1,6=6,7=1111,11=2,25=1,30=1,71=1,74=-58/1,2,3;
 4/5=5,16=3,69=1/1;
 5/5=2,38=5/2;
 7//1,2,3,16;
 1/18=20,19=15,26=3/3(-5);
 2/9=110/2;
 6/7=2,8=2,9=2,10=2,19=2,28=1/1;
 99/9=1/99;
 Leave Link    1 at Wed Dec 29 11:03:33 2021, MaxMem=   131072000 cpu:               0.2 elap:               0.0
 (Enter /public/scc/g16/g16/l101.exe)
 -----
 aaaaa
 -----
 Symbolic Z-matrix:
 Charge =  0 Multiplicity = 1
 O                     0.        0.        0.11926 
 H                     0.        0.76324  -0.47705 
 H                     0.       -0.76324  -0.47705 
 
 ITRead=  0  0  0
 MicOpt= -1 -1 -1
 NAtoms=      3 NQM=        3 NQMF=       0 NMMI=      0 NMMIF=      0
                NMic=       0 NMicF=      0.
                    Isotopes and Nuclear Properties:
 (Nuclear quadrupole moments (NQMom) in fm**2, nuclear magnetic moments (NMagM)
  in nuclear magnetons)

  Atom         1           2           3
 IAtWgt=          16           1           1
 AtmWgt=  15.9949146   1.0078250   1.0078250
 NucSpn=           0           1           1
 AtZEff=  -0.0000000  -0.0000000  -0.0000000
 NQMom=    0.0000000   0.0000000   0.0000000
 NMagM=    0.0000000   2.7928460   2.7928460
 AtZNuc=   8.0000000   1.0000000   1.0000000
 Leave Link  101 at Wed Dec 29 11:03:33 2021, MaxMem=   131072000 cpu:               0.7 elap:               0.1
 (Enter /public/scc/g16/g16/l103.exe)

 GradGradGradGradGradGradGradGradGradGradGradGradGradGradGradGradGradGrad
 Berny optimization.
 Initialization pass.
                           ----------------------------
                           !    Initial Parameters    !
                           ! (Angstroms and Degrees)  !
 --------------------------                            --------------------------
 ! Name  Definition              Value          Derivative Info.                !
 --------------------------------------------------------------------------------
 ! R1    R(1,2)                  0.9686         estimate D2E/DX2                !
 ! R2    R(1,3)                  0.9686         estimate D2E/DX2                !
 ! A1    A(2,1,3)              103.9999         estimate D2E/DX2                !
 --------------------------------------------------------------------------------
 Trust Radius=3.00D-01 FncErr=1.00D-07 GrdErr=1.00D-06 EigMax=2.50D+02 EigMin=1.00D-04
 Number of steps in this run=     20 maximum allowed number of steps=    100.
 GradGradGradGradGradGradGradGradGradGradGradGradGradGradGradGradGradGrad

 Leave Link  103 at Wed Dec 29 11:03:33 2021, MaxMem=   131072000 cpu:               0.1 elap:               0.0
 (Enter /public/scc/g16/g16/l202.exe)
                          Input orientation:                          
 ---------------------------------------------------------------------
 Center     Atomic      Atomic             Coordinates (Angstroms)
 Number     Number       Type             X           Y           Z
 ---------------------------------------------------------------------
      1          8           0        0.000000    0.000000    0.119262
      2          1           0        0.000000    0.763239   -0.477047
      3          1           0        0.000000   -0.763239   -0.477047
 ---------------------------------------------------------------------
                    Distance matrix (angstroms):
                    1          2          3
     1  O    0.000000
     2  H    0.968565   0.000000
     3  H    0.968565   1.526478   0.000000
 Stoichiometry    H2O
 Framework group  C2V[C2(O),SGV(H2)]
 Deg. of freedom     2
 Full point group                 C2V     NOp   4
 Largest Abelian subgroup         C2V     NOp   4
 Largest concise Abelian subgroup C2      NOp   2
                         Standard orientation:                         
 ---------------------------------------------------------------------
 Center     Atomic      Atomic             Coordinates (Angstroms)
 Number     Number       Type             X           Y           Z
 ---------------------------------------------------------------------
      1          8           0        0.000000   -0.000000    0.119262
      2          1           0        0.000000    0.763239   -0.477047
      3          1           0       -0.000000   -0.763239   -0.477047
 ---------------------------------------------------------------------
 Rotational constants (GHZ):         793.9711755         430.4086126         279.1062344
 Leave Link  202 at Wed Dec 29 11:03:33 2021, MaxMem=   131072000 cpu:               0.1 elap:               0.0
 (Enter /public/scc/g16/g16/l301.exe)
 Standard basis: 6-31++G(d,p) (6D, 7F)
 Ernie: Thresh=  0.10000D-02 Tol=  0.10000D-05 Strict=F.
 There are    15 symmetry adapted cartesian basis functions of A1  symmetry.
 There are     2 symmetry adapted cartesian basis functions of A2  symmetry.
 There are     5 symmetry adapted cartesian basis functions of B1  symmetry.
 There are     9 symmetry adapted cartesian basis functions of B2  symmetry.
 There are    15 symmetry adapted basis functions of A1  symmetry.
 There are     2 symmetry adapted basis functions of A2  symmetry.
 There are     5 symmetry adapted basis functions of B1  symmetry.
 There are     9 symmetry adapted basis functions of B2  symmetry.
    31 basis functions,    48 primitive gaussians,    31 cartesian basis functions
     5 alpha electrons        5 beta electrons
       nuclear repulsion energy         9.0882937691 Hartrees.
 IExCor= 4639 DFT=T Ex+Corr=wB97XD ExCW=0 ScaHFX=  1.000000
 ScaDFX=  1.000000  1.000000  1.000000  1.000000 ScalE2=  1.000000  1.000000
 IRadAn=      5 IRanWt=     -1 IRanGd=            0 ICorTp=0 IEmpDi=121
 HFx  wShort=  0.000000 wLong=  0.200000 cFull=  0.222036 cShort=  0.000000 cLong=  0.777964
 DFx  wShort=  0.000000 wLong=  0.200000 cFull=  0.000000 cShort=  0.000000 cLong=  1.000000
 NAtoms=    3 NActive=    3 NUniq=    2 SFac= 2.25D+00 NAtFMM=   60 NAOKFM=F Big=F
 Integral buffers will be    131072 words long.
 Raffenetti 2 integral format.
 Two-electron integral symmetry is turned on.
 R6Disp:  Grimme-D2 Dispersion energy=       -0.0000281486 Hartrees.
 Nuclear repulsion after empirical dispersion term =        9.0882656206 Hartrees.
 Leave Link  301 at Wed Dec 29 11:03:33 2021, MaxMem=   131072000 cpu:               0.4 elap:               0.1
 (Enter /public/scc/g16/g16/l302.exe)
 NPDir=0 NMtPBC=     1 NCelOv=     1 NCel=       1 NClECP=     1 NCelD=      1
         NCelK=      1 NCelE2=     1 NClLst=     1 CellRange=     0.0.
 One-electron integrals computed using PRISM.
 One-electron integral symmetry used in STVInt
 NBasis=    31 RedAO= T EigKep=  1.27D-02  NBF=    15     2     5     9
 NBsUse=    31 1.00D-06 EigRej= -1.00D+00 NBFU=    15     2     5     9
 Precomputing XC quadrature grid using
 IXCGrd= 4 IRadAn=           5 IRanWt=          -1 IRanGd=           0 AccXCQ= 0.00D+00.
 Generated NRdTot=       0 NPtTot=           0 NUsed=           0 NTot=          32
 NSgBfM=    31    31    31    31    31 MxSgAt=     3 MxSgA2=     3.
 Leave Link  302 at Wed Dec 29 11:03:33 2021, MaxMem=   131072000 cpu:               1.1 elap:               0.2
 (Enter /public/scc/g16/g16/l303.exe)
 DipDrv:  MaxL=1.
 Leave Link  303 at Wed Dec 29 11:03:33 2021, MaxMem=   131072000 cpu:               0.2 elap:               0.0
 (Enter /public/scc/g16/g16/l401.exe)
 ExpMin= 3.60D-02 ExpMax= 5.48D+03 ExpMxC= 8.25D+02 IAcc=3 IRadAn=         5 AccDes= 0.00D+00
 Harris functional with IExCor= 4639 and IRadAn=       5 diagonalized for initial guess.
 HarFok:  IExCor= 4639 AccDes= 0.00D+00 IRadAn=         5 IDoV= 1 UseB2=F ITyADJ=14
 ICtDFT=  3500011 ScaDFX=  1.000000  1.000000  1.000000  1.000000
 FoFCou: FMM=F IPFlag=           0 FMFlag=      100000 FMFlg1=           0
         NFxFlg=           0 DoJE=T BraDBF=F KetDBF=T FulRan=T
         wScrn=  0.000000 ICntrl=       500 IOpCl=  0 I1Cent=   200000004 NGrid=           0
         NMat0=    1 NMatS0=      1 NMatT0=    0 NMatD0=    1 NMtDS0=    0 NMtDT0=    0
 Petite list used in FoFCou.
 Harris En= -73.6055738207203    
 JPrj=0 DoOrth=F DoCkMO=F.
 Initial guess orbital symmetries:
       Occupied  (A1) (A1) (B2) (A1) (B1)
       Virtual   (A1) (B2) (A1) (B1) (A1) (B2) (B2) (A1) (B2) (A1)
                 (B1) (A1) (B2) (A1) (A2) (A1) (B1) (A1) (B2) (B2)
                 (A2) (B1) (A1) (A1) (B2) (A1)
 The electronic state of the initial guess is 1-A1.
 Leave Link  401 at Wed Dec 29 11:03:33 2021, MaxMem=   131072000 cpu:               1.6 elap:               0.2
 (Enter /public/scc/g16/g16/l502.exe)
 Keep R1 ints in memory in symmetry-blocked form, NReq=7148193.
 FoFCou: FMM=F IPFlag=           0 FMFlag=           0 FMFlg1=           0
         NFxFlg=           0 DoJE=F BraDBF=F KetDBF=F FulRan=T
         wScrn=  0.000000 ICntrl=       600 IOpCl=  0 I1Cent=           0 NGrid=           0
         NMat0=    1 NMatS0=    496 NMatT0=    0 NMatD0=    1 NMtDS0=    0 NMtDT0=    0
 Petite list used in FoFCou.
 Closed shell SCF:
 Using DIIS extrapolation, IDIIS=  1040.
 NGot=   131072000 LenX=   131032583 LenY=   131031181
 Requested convergence on RMS density matrix=1.00D-08 within 128 cycles.
 Requested convergence on MAX density matrix=1.00D-06.
 Requested convergence on             energy=1.00D-06.
 No special actions if energy rises.

 Cycle   1  Pass 1  IDiag  1:
 E= -76.3985196783755    
 DIIS: error= 5.17D-02 at cycle   1 NSaved=   1.
 NSaved= 1 IEnMin= 1 EnMin= -76.3985196783755     IErMin= 1 ErrMin= 5.17D-02
 ErrMax= 5.17D-02  0.00D+00 EMaxC= 1.00D-01 BMatC= 4.28D-02 BMatP= 4.28D-02
 IDIUse=3 WtCom= 4.83D-01 WtEn= 5.17D-01
 Coeff-Com:  0.100D+01
 Coeff-En:   0.100D+01
 Coeff:      0.100D+01
 Gap=     0.468 Goal=   None    Shift=    0.000
 GapD=    0.468 DampG=2.000 DampE=0.500 DampFc=1.0000 IDamp=-1.
 RMSDP=3.51D-03 MaxDP=3.26D-02              OVMax= 3.89D-02

 Cycle   2  Pass 1  IDiag  1:
 E= -76.4070019490939     Delta-E=       -0.008482270718 Rises=F Damp=F
 DIIS: error= 1.05D-02 at cycle   2 NSaved=   2.
 NSaved= 2 IEnMin= 2 EnMin= -76.4070019490939     IErMin= 2 ErrMin= 1.05D-02
 ErrMax= 1.05D-02  0.00D+00 EMaxC= 1.00D-01 BMatC= 3.60D-03 BMatP= 4.28D-02
 IDIUse=3 WtCom= 8.95D-01 WtEn= 1.05D-01
 Coeff-Com:  0.157D+00 0.843D+00
 Coeff-En:   0.000D+00 0.100D+01
 Coeff:      0.141D+00 0.859D+00
 Gap=     0.424 Goal=   None    Shift=    0.000
 RMSDP=1.75D-03 MaxDP=2.23D-02 DE=-8.48D-03 OVMax= 2.18D-02

 Cycle   3  Pass 1  IDiag  1:
 E= -76.4079053249921     Delta-E=       -0.000903375898 Rises=F Damp=F
 DIIS: error= 9.98D-03 at cycle   3 NSaved=   3.
 NSaved= 3 IEnMin= 3 EnMin= -76.4079053249921     IErMin= 3 ErrMin= 9.98D-03
 ErrMax= 9.98D-03  0.00D+00 EMaxC= 1.00D-01 BMatC= 2.24D-03 BMatP= 3.60D-03
 IDIUse=3 WtCom= 9.00D-01 WtEn= 9.98D-02
 Coeff-Com:  0.104D-01 0.443D+00 0.546D+00
 Coeff-En:   0.000D+00 0.385D+00 0.615D+00
 Coeff:      0.933D-02 0.438D+00 0.553D+00
 Gap=     0.444 Goal=   None    Shift=    0.000
 RMSDP=7.71D-04 MaxDP=1.08D-02 DE=-9.03D-04 OVMax= 1.13D-02

 Cycle   4  Pass 1  IDiag  1:
 E= -76.4094298569332     Delta-E=       -0.001524531941 Rises=F Damp=F
 DIIS: error= 5.85D-04 at cycle   4 NSaved=   4.
 NSaved= 4 IEnMin= 4 EnMin= -76.4094298569332     IErMin= 4 ErrMin= 5.85D-04
 ErrMax= 5.85D-04  0.00D+00 EMaxC= 1.00D-01 BMatC= 6.96D-06 BMatP= 2.24D-03
 IDIUse=3 WtCom= 9.94D-01 WtEn= 5.85D-03
 Coeff-Com: -0.111D-02 0.442D-01 0.943D-01 0.863D+00
 Coeff-En:   0.000D+00 0.000D+00 0.000D+00 0.100D+01
 Coeff:     -0.110D-02 0.440D-01 0.937D-01 0.863D+00
 Gap=     0.443 Goal=   None    Shift=    0.000
 RMSDP=9.76D-05 MaxDP=7.59D-04 DE=-1.52D-03 OVMax= 8.74D-04

 Cycle   5  Pass 1  IDiag  1:
 E= -76.4094361278086     Delta-E=       -0.000006270875 Rises=F Damp=F
 DIIS: error= 5.64D-05 at cycle   5 NSaved=   5.
 NSaved= 5 IEnMin= 5 EnMin= -76.4094361278086     IErMin= 5 ErrMin= 5.64D-05
 ErrMax= 5.64D-05  0.00D+00 EMaxC= 1.00D-01 BMatC= 1.20D-07 BMatP= 6.96D-06
 IDIUse=1 WtCom= 1.00D+00 WtEn= 0.00D+00
 Coeff-Com: -0.135D-03-0.227D-01-0.303D-01-0.125D+00 0.118D+01
 Coeff:     -0.135D-03-0.227D-01-0.303D-01-0.125D+00 0.118D+01
 Gap=     0.443 Goal=   None    Shift=    0.000
 RMSDP=4.08D-05 MaxDP=3.00D-04 DE=-6.27D-06 OVMax= 3.27D-04

 Cycle   6  Pass 1  IDiag  1:
 E= -76.4094364484490     Delta-E=       -0.000000320640 Rises=F Damp=F
 DIIS: error= 1.11D-05 at cycle   6 NSaved=   6.
 NSaved= 6 IEnMin= 6 EnMin= -76.4094364484490     IErMin= 6 ErrMin= 1.11D-05
 ErrMax= 1.11D-05  0.00D+00 EMaxC= 1.00D-01 BMatC= 1.79D-09 BMatP= 1.20D-07
 IDIUse=1 WtCom= 1.00D+00 WtEn= 0.00D+00
 Coeff-Com:  0.639D-04 0.565D-02 0.717D-02 0.254D-01-0.335D+00 0.130D+01
 Coeff:      0.639D-04 0.565D-02 0.717D-02 0.254D-01-0.335D+00 0.130D+01
 Gap=     0.443 Goal=   None    Shift=    0.000
 RMSDP=5.61D-06 MaxDP=4.31D-05 DE=-3.21D-07 OVMax= 6.17D-05

 Cycle   7  Pass 1  IDiag  1:
 E= -76.4094364555767     Delta-E=       -0.000000007128 Rises=F Damp=F
 DIIS: error= 1.31D-06 at cycle   7 NSaved=   7.
 NSaved= 7 IEnMin= 7 EnMin= -76.4094364555767     IErMin= 7 ErrMin= 1.31D-06
 ErrMax= 1.31D-06  0.00D+00 EMaxC= 1.00D-01 BMatC= 2.03D-11 BMatP= 1.79D-09
 IDIUse=1 WtCom= 1.00D+00 WtEn= 0.00D+00
 Coeff-Com: -0.749D-05-0.610D-03-0.783D-03-0.298D-02 0.393D-01-0.213D+00
 Coeff-Com:  0.118D+01
 Coeff:     -0.749D-05-0.610D-03-0.783D-03-0.298D-02 0.393D-01-0.213D+00
 Coeff:      0.118D+01
 Gap=     0.443 Goal=   None    Shift=    0.000
 RMSDP=3.51D-07 MaxDP=2.72D-06 DE=-7.13D-09 OVMax= 8.64D-06

 Cycle   8  Pass 1  IDiag  1:
 E= -76.4094364556674     Delta-E=       -0.000000000091 Rises=F Damp=F
 DIIS: error= 1.93D-07 at cycle   8 NSaved=   8.
 NSaved= 8 IEnMin= 8 EnMin= -76.4094364556674     IErMin= 8 ErrMin= 1.93D-07
 ErrMax= 1.93D-07  0.00D+00 EMaxC= 1.00D-01 BMatC= 1.15D-12 BMatP= 2.03D-11
 IDIUse=1 WtCom= 1.00D+00 WtEn= 0.00D+00
 Coeff-Com:  0.483D-06 0.120D-04-0.281D-05 0.970D-04-0.657D-03 0.102D-01
 Coeff-Com: -0.206D+00 0.120D+01
 Coeff:      0.483D-06 0.120D-04-0.281D-05 0.970D-04-0.657D-03 0.102D-01
 Coeff:     -0.206D+00 0.120D+01
 Gap=     0.443 Goal=   None    Shift=    0.000
 RMSDP=8.36D-08 MaxDP=7.72D-07 DE=-9.07D-11 OVMax= 1.32D-06

 Cycle   9  Pass 1  IDiag  1:
 E= -76.4094364556699     Delta-E=       -0.000000000003 Rises=F Damp=F
 DIIS: error= 2.18D-08 at cycle   9 NSaved=   9.
 NSaved= 9 IEnMin= 9 EnMin= -76.4094364556699     IErMin= 9 ErrMin= 2.18D-08
 ErrMax= 2.18D-08  0.00D+00 EMaxC= 1.00D-01 BMatC= 1.05D-14 BMatP= 1.15D-12
 IDIUse=1 WtCom= 1.00D+00 WtEn= 0.00D+00
 Coeff-Com: -0.480D-07 0.291D-05 0.925D-05 0.108D-04-0.321D-03 0.644D-03
 Coeff-Com:  0.285D-01-0.262D+00 0.123D+01
 Coeff:     -0.480D-07 0.291D-05 0.925D-05 0.108D-04-0.321D-03 0.644D-03
 Coeff:      0.285D-01-0.262D+00 0.123D+01
 Gap=     0.443 Goal=   None    Shift=    0.000
 RMSDP=8.51D-09 MaxDP=9.23D-08 DE=-2.50D-12 OVMax= 1.26D-07

 SCF Done:  E(RwB97XD) =  -76.4094364557     A.U. after    9 cycles
            NFock=  9  Conv=0.85D-08     -V/T= 2.0092
 KE= 7.570934433145D+01 PE=-1.984819633353D+02 EE= 3.727491692756D+01
 Leave Link  502 at Wed Dec 29 11:03:34 2021, MaxMem=   131072000 cpu:               4.6 elap:               0.6
 (Enter /public/scc/g16/g16/l601.exe)
 Copying SCF densities to generalized density rwf, IOpCl= 0 IROHF=0.

 **********************************************************************

            Population analysis using the SCF density.

 **********************************************************************

 Orbital symmetries:
       Occupied  (A1) (A1) (B2) (A1) (B1)
       Virtual   (A1) (B2) (A1) (B1) (A1) (B2) (B2) (A1) (B2) (A1)
                 (B1) (A1) (B2) (A1) (A2) (A1) (B1) (A1) (B2) (B2)
                 (A2) (B1) (A1) (A1) (B2) (A1)
 The electronic state is 1-A1.
 Alpha  occ. eigenvalues --  -19.28967  -1.11910  -0.62248  -0.48191  -0.40509
 Alpha virt. eigenvalues --    0.03795   0.07422   0.21788   0.23733   0.24186
 Alpha virt. eigenvalues --    0.27963   0.30023   0.35718   1.00419   1.09474
 Alpha virt. eigenvalues --    1.20465   1.22196   1.25315   1.45358   1.59521
 Alpha virt. eigenvalues --    1.62572   1.71512   2.32956   2.33973   2.58916
 Alpha virt. eigenvalues --    2.71134   2.74560   3.10457   3.43586   3.65977
 Alpha virt. eigenvalues --    4.11453
          Condensed to atoms (all electrons):
               1          2          3
     1  O    8.135072   0.282695   0.282695
     2  H    0.282695   0.398110  -0.031035
     3  H    0.282695  -0.031035   0.398110
 Mulliken charges:
               1
     1  O   -0.700461
     2  H    0.350231
     3  H    0.350231
 Sum of Mulliken charges =  -0.00000
 Mulliken charges with hydrogens summed into heavy atoms:
               1
     1  O   -0.000000
 Electronic spatial extent (au):  <R**2>=             19.9749
 Charge=             -0.0000 electrons
 Dipole moment (field-independent basis, Debye):
    X=             -0.0000    Y=              0.0000    Z=             -2.2510  Tot=              2.2510
 Quadrupole moment (field-independent basis, Debye-Ang):
   XX=             -7.7945   YY=             -4.3569   ZZ=             -6.3868
   XY=              0.0000   XZ=              0.0000   YZ=              0.0000
 Traceless Quadrupole moment (field-independent basis, Debye-Ang):
   XX=             -1.6151   YY=              1.8225   ZZ=             -0.2074
   XY=              0.0000   XZ=              0.0000   YZ=              0.0000
 Octapole moment (field-independent basis, Debye-Ang**2):
  XXX=              0.0000  YYY=              0.0000  ZZZ=             -1.6478  XYY=             -0.0000
  XXY=              0.0000  XXZ=             -0.4797  XZZ=             -0.0000  YZZ=              0.0000
  YYZ=             -1.4333  XYZ=             -0.0000
 Hexadecapole moment (field-independent basis, Debye-Ang**3):
 XXXX=             -7.5703 YYYY=             -6.3666 ZZZZ=             -7.8260 XXXY=             -0.0000
 XXXZ=             -0.0000 YYYX=             -0.0000 YYYZ=              0.0000 ZZZX=             -0.0000
 ZZZY=             -0.0000 XXYY=             -2.6034 XXZZ=             -2.6236 YYZZ=             -2.0207
 XXYZ=              0.0000 YYXZ=              0.0000 ZZXY=              0.0000
 N-N= 9.088265620572D+00 E-N=-1.984819629637D+02  KE= 7.570934433145D+01
 Symmetry A1   KE= 6.763969929955D+01
 Symmetry A2   KE=-2.680707413972D-36
 Symmetry B1   KE= 4.459780552492D+00
 Symmetry B2   KE= 3.609864479408D+00
 No NMR shielding tensors so no spin-rotation constants.
 Leave Link  601 at Wed Dec 29 11:03:34 2021, MaxMem=   131072000 cpu:               1.0 elap:               0.2
 (Enter /public/scc/g16/g16/l701.exe)
 ... and contract with generalized density number  0.
 Compute integral first derivatives.
 R6Disp: Adding Grimme-D2 dispersion energy 1st derivatives to the gradient.
 Leave Link  701 at Wed Dec 29 11:03:34 2021, MaxMem=   131072000 cpu:               1.1 elap:               0.1
 (Enter /public/scc/g16/g16/l702.exe)
 L702 exits ... SP integral derivatives will be done elsewhere.
 Leave Link  702 at Wed Dec 29 11:03:34 2021, MaxMem=   131072000 cpu:               0.2 elap:               0.0
 (Enter /public/scc/g16/g16/l703.exe)
 Integral derivatives from FoFJK, PRISM(SPDF).
 Compute integral first derivatives, UseDBF=F ICtDFT=           0.
 Calling FoFJK, ICntrl=      2127 FMM=F ISym2X=1 I1Cent= 0 IOpClX= 0 NMat=1 NMatS=1 NMatT=0.
 FoFJK:  IHMeth= 1 ICntrl=    2127 DoSepK=T KAlg= 0 I1Cent=           0 FoldK=F
 IRaf=         1 NMat=       1 IRICut=       1 DoRegI=T DoRafI=F ISym2E= 1 IDoP0=0 IntGTp=1.
 FoFCou: FMM=F IPFlag=           0 FMFlag=      100000 FMFlg1=         800
         NFxFlg=           0 DoJE=F BraDBF=F KetDBF=F FulRan=T
         wScrn=  0.000000 ICntrl=      2527 IOpCl=  0 I1Cent=           0 NGrid=           0
         NMat0=    1 NMatS0=      1 NMatT0=    0 NMatD0=    1 NMtDS0=    0 NMtDT0=    0
 Petite list used in FoFCou.
 Leave Link  703 at Wed Dec 29 11:03:35 2021, MaxMem=   131072000 cpu:               3.9 elap:               0.5
 (Enter /public/scc/g16/g16/l716.exe)
 Dipole        =-5.62191442D-17 0.00000000D+00-8.85602489D-01
 ***** Axes restored to original set *****
 -------------------------------------------------------------------
 Center     Atomic                   Forces (Hartrees/Bohr)
 Number     Number              X              Y              Z
 -------------------------------------------------------------------
      1        8          -0.000000000   -0.000000000   -0.012904712
      2        1           0.000000000   -0.004416623    0.006452356
      3        1           0.000000000    0.004416623    0.006452356
 -------------------------------------------------------------------
 Cartesian Forces:  Max     0.012904712 RMS     0.005664809
 Leave Link  716 at Wed Dec 29 11:03:35 2021, MaxMem=   131072000 cpu:               0.2 elap:               0.0
 (Enter /public/scc/g16/g16/l103.exe)

 GradGradGradGradGradGradGradGradGradGradGradGradGradGradGradGradGradGrad
 Berny optimization.
 FormGI is forming the generalized inverse of G from B-inverse, IUseBI=4.
 Internal  Forces:  Max     0.007452816 RMS     0.006578566
 Search for a local minimum.
 Step number   1 out of a maximum of   20
 All quantities printed in internal units (Hartrees-Bohrs-Radians)
 RMS Force = .65786D-02 SwitMx=.10000D-02 MixMth= 1
 Mixed Optimization -- RFO/linear search
 Second derivative matrix not updated -- first step.
 The second derivative matrix:
                          R1        R2        A1
           R1           0.53671
           R2           0.00000   0.53671
           A1           0.00000   0.00000   0.16000
 ITU=  0
     Eigenvalues ---    0.16000   0.53671   0.53671
 RFO step:  Lambda=-3.23766667D-04 EMin= 1.60000000D-01
 Linear search not attempted -- first point.
 Iteration  1 RMS(Cart)=  0.01365046 RMS(Int)=  0.00018019
 Iteration  2 RMS(Cart)=  0.00019838 RMS(Int)=  0.00000001
 Iteration  3 RMS(Cart)=  0.00000001 RMS(Int)=  0.00000000
 ITry= 1 IFail=0 DXMaxC= 1.86D-02 DCOld= 1.00D+10 DXMaxT= 3.00D-01 DXLimC= 3.00D+00 Rises=F
 ClnCor:  largest displacement from symmetrization is 6.10D-16 for atom     1.
 Variable       Old X    -DE/DX   Delta X   Delta X   Delta X     New X
                                 (Linear)    (Quad)   (Total)
    R1        1.83032  -0.00745   0.00000  -0.01388  -0.01388   1.81644
    R2        1.83032  -0.00745   0.00000  -0.01388  -0.01388   1.81644
    A1        1.81514   0.00433   0.00000   0.02700   0.02700   1.84214
         Item               Value     Threshold  Converged?
 Maximum Force            0.007453     0.000450     NO 
 RMS     Force            0.006579     0.000300     NO 
 Maximum Displacement     0.018648     0.001800     NO 
 RMS     Displacement     0.013591     0.001200     NO 
 Predicted change in Energy=-1.620639D-04
 Lowest energy point so far.  Saving SCF results.
 GradGradGradGradGradGradGradGradGradGradGradGradGradGradGradGradGradGrad

 Leave Link  103 at Wed Dec 29 11:03:35 2021, MaxMem=   131072000 cpu:               0.1 elap:               0.0
 (Enter /public/scc/g16/g16/l202.exe)
                          Input orientation:                          
 ---------------------------------------------------------------------
 Center     Atomic      Atomic             Coordinates (Angstroms)
 Number     Number       Type             X           Y           Z
 ---------------------------------------------------------------------
      1          8           0        0.000000    0.000000    0.109394
      2          1           0        0.000000    0.765373   -0.472113
      3          1           0       -0.000000   -0.765373   -0.472113
 ---------------------------------------------------------------------
                    Distance matrix (angstroms):
                    1          2          3
     1  O    0.000000
     2  H    0.961221   0.000000
     3  H    0.961221   1.530746   0.000000
 Stoichiometry    H2O
 Framework group  C2V[C2(O),SGV(H2)]
 Deg. of freedom     2
 Full point group                 C2V     NOp   4
 RotChk:  IX=0 Diff= 6.66D-16
 Largest Abelian subgroup         C2V     NOp   4
 Largest concise Abelian subgroup C2      NOp   2
                         Standard orientation:                         
 ---------------------------------------------------------------------
 Center     Atomic      Atomic             Coordinates (Angstroms)
 Number     Number       Type             X           Y           Z
 ---------------------------------------------------------------------
      1          8           0       -0.000000    0.000000    0.116301
      2          1           0        0.000000    0.765373   -0.465206
      3          1           0       -0.000000   -0.765373   -0.465206
 ---------------------------------------------------------------------
 Rotational constants (GHZ):         834.9061342         428.0117257         282.9555481
 Leave Link  202 at Wed Dec 29 11:03:35 2021, MaxMem=   131072000 cpu:               0.1 elap:               0.0
 (Enter /public/scc/g16/g16/l301.exe)
 Standard basis: 6-31++G(d,p) (6D, 7F)
 Ernie: Thresh=  0.10000D-02 Tol=  0.10000D-05 Strict=F.
 There are    15 symmetry adapted cartesian basis functions of A1  symmetry.
 There are     2 symmetry adapted cartesian basis functions of A2  symmetry.
 There are     5 symmetry adapted cartesian basis functions of B1  symmetry.
 There are     9 symmetry adapted cartesian basis functions of B2  symmetry.
 There are    15 symmetry adapted basis functions of A1  symmetry.
 There are     2 symmetry adapted basis functions of A2  symmetry.
 There are     5 symmetry adapted basis functions of B1  symmetry.
 There are     9 symmetry adapted basis functions of B2  symmetry.
    31 basis functions,    48 primitive gaussians,    31 cartesian basis functions
     5 alpha electrons        5 beta electrons
       nuclear repulsion energy         9.1541134197 Hartrees.
 IExCor= 4639 DFT=T Ex+Corr=wB97XD ExCW=0 ScaHFX=  1.000000
 ScaDFX=  1.000000  1.000000  1.000000  1.000000 ScalE2=  1.000000  1.000000
 IRadAn=      5 IRanWt=     -1 IRanGd=            0 ICorTp=0 IEmpDi=121
 HFx  wShort=  0.000000 wLong=  0.200000 cFull=  0.222036 cShort=  0.000000 cLong=  0.777964
 DFx  wShort=  0.000000 wLong=  0.200000 cFull=  0.000000 cShort=  0.000000 cLong=  1.000000
 NAtoms=    3 NActive=    3 NUniq=    2 SFac= 2.25D+00 NAtFMM=   60 NAOKFM=F Big=F
 Integral buffers will be    131072 words long.
 Raffenetti 2 integral format.
 Two-electron integral symmetry is turned on.
 R6Disp:  Grimme-D2 Dispersion energy=       -0.0000285444 Hartrees.
 Nuclear repulsion after empirical dispersion term =        9.1540848754 Hartrees.
 Leave Link  301 at Wed Dec 29 11:03:35 2021, MaxMem=   131072000 cpu:               0.3 elap:               0.1
 (Enter /public/scc/g16/g16/l302.exe)
 NPDir=0 NMtPBC=     1 NCelOv=     1 NCel=       1 NClECP=     1 NCelD=      1
         NCelK=      1 NCelE2=     1 NClLst=     1 CellRange=     0.0.
 One-electron integrals computed using PRISM.
 One-electron integral symmetry used in STVInt
 NBasis=    31 RedAO= T EigKep=  1.28D-02  NBF=    15     2     5     9
 NBsUse=    31 1.00D-06 EigRej= -1.00D+00 NBFU=    15     2     5     9
 Precomputing XC quadrature grid using
 IXCGrd= 4 IRadAn=           5 IRanWt=          -1 IRanGd=           0 AccXCQ= 0.00D+00.
 Generated NRdTot=       0 NPtTot=           0 NUsed=           0 NTot=          32
 NSgBfM=    31    31    31    31    31 MxSgAt=     3 MxSgA2=     3.
 Leave Link  302 at Wed Dec 29 11:03:35 2021, MaxMem=   131072000 cpu:               1.3 elap:               0.2
 (Enter /public/scc/g16/g16/l303.exe)
 DipDrv:  MaxL=1.
 Leave Link  303 at Wed Dec 29 11:03:35 2021, MaxMem=   131072000 cpu:               0.2 elap:               0.0
 (Enter /public/scc/g16/g16/l401.exe)
 Initial guess from the checkpoint file:  "W.chk"
 B after Tr=    -0.000000    0.000000   -0.000000
         Rot=    1.000000   -0.000000    0.000000   -0.000000 Ang=   0.00 deg.
 Guess basis will be translated and rotated to current coordinates.
 JPrj=2 DoOrth=T DoCkMO=T.
 Initial guess orbital symmetries:
       Occupied  (A1) (A1) (B2) (A1) (B1)
       Virtual   (A1) (B2) (A1) (B1) (A1) (B2) (B2) (A1) (B2) (A1)
                 (B1) (A1) (B2) (A1) (A2) (A1) (B1) (A1) (B2) (B2)
                 (A2) (B1) (A1) (A1) (B2) (A1)
 The electronic state of the initial guess is 1-A1.
 Leave Link  401 at Wed Dec 29 11:03:36 2021, MaxMem=   131072000 cpu:               0.6 elap:               0.1
 (Enter /public/scc/g16/g16/l502.exe)
 Keep R1 ints in memory in symmetry-blocked form, NReq=7148193.
 FoFCou: FMM=F IPFlag=           0 FMFlag=           0 FMFlg1=           0
         NFxFlg=           0 DoJE=F BraDBF=F KetDBF=F FulRan=T
         wScrn=  0.000000 ICntrl=       600 IOpCl=  0 I1Cent=           0 NGrid=           0
         NMat0=    1 NMatS0=    496 NMatT0=    0 NMatD0=    1 NMtDS0=    0 NMtDT0=    0
 Petite list used in FoFCou.
 Closed shell SCF:
 Using DIIS extrapolation, IDIIS=  1040.
 NGot=   131072000 LenX=   131032583 LenY=   131031181
 Requested convergence on RMS density matrix=1.00D-08 within 128 cycles.
 Requested convergence on MAX density matrix=1.00D-06.
 Requested convergence on             energy=1.00D-06.
 No special actions if energy rises.

 Cycle   1  Pass 1  IDiag  1:
 E= -76.4095564854042    
 DIIS: error= 1.30D-03 at cycle   1 NSaved=   1.
 NSaved= 1 IEnMin= 1 EnMin= -76.4095564854042     IErMin= 1 ErrMin= 1.30D-03
 ErrMax= 1.30D-03  0.00D+00 EMaxC= 1.00D-01 BMatC= 5.03D-05 BMatP= 5.03D-05
 IDIUse=3 WtCom= 9.87D-01 WtEn= 1.30D-02
 Coeff-Com:  0.100D+01
 Coeff-En:   0.100D+01
 Coeff:      0.100D+01
 Gap=     0.446 Goal=   None    Shift=    0.000
 GapD=    0.446 DampG=2.000 DampE=1.000 DampFc=2.0000 IDamp=-1.
 RMSDP=3.42D-04 MaxDP=2.25D-03              OVMax= 3.51D-03

 Cycle   2  Pass 1  IDiag  1:
 E= -76.4096131160411     Delta-E=       -0.000056630637 Rises=F Damp=F
 DIIS: error= 6.61D-04 at cycle   2 NSaved=   2.
 NSaved= 2 IEnMin= 2 EnMin= -76.4096131160411     IErMin= 2 ErrMin= 6.61D-04
 ErrMax= 6.61D-04  0.00D+00 EMaxC= 1.00D-01 BMatC= 1.04D-05 BMatP= 5.03D-05
 IDIUse=3 WtCom= 9.93D-01 WtEn= 6.61D-03
 Coeff-Com:  0.174D+00 0.826D+00
 Coeff-En:   0.000D+00 0.100D+01
 Coeff:      0.173D+00 0.827D+00
 Gap=     0.443 Goal=   None    Shift=    0.000
 RMSDP=9.37D-05 MaxDP=1.26D-03 DE=-5.66D-05 OVMax= 1.25D-03

 Cycle   3  Pass 1  IDiag  1:
 E= -76.4096180092480     Delta-E=       -0.000004893207 Rises=F Damp=F
 DIIS: error= 4.12D-04 at cycle   3 NSaved=   3.
 NSaved= 3 IEnMin= 3 EnMin= -76.4096180092480     IErMin= 3 ErrMin= 4.12D-04
 ErrMax= 4.12D-04  0.00D+00 EMaxC= 1.00D-01 BMatC= 4.93D-06 BMatP= 1.04D-05
 IDIUse=3 WtCom= 9.96D-01 WtEn= 4.12D-03
 Coeff-Com: -0.792D-01 0.414D+00 0.665D+00
 Coeff-En:   0.000D+00 0.231D+00 0.769D+00
 Coeff:     -0.789D-01 0.413D+00 0.666D+00
 Gap=     0.444 Goal=   None    Shift=    0.000
 RMSDP=5.68D-05 MaxDP=5.42D-04 DE=-4.89D-06 OVMax= 6.91D-04

 Cycle   4  Pass 1  IDiag  1:
 E= -76.4096217251866     Delta-E=       -0.000003715939 Rises=F Damp=F
 DIIS: error= 2.75D-05 at cycle   4 NSaved=   4.
 NSaved= 4 IEnMin= 4 EnMin= -76.4096217251866     IErMin= 4 ErrMin= 2.75D-05
 ErrMax= 2.75D-05  0.00D+00 EMaxC= 1.00D-01 BMatC= 1.84D-08 BMatP= 4.93D-06
 IDIUse=1 WtCom= 1.00D+00 WtEn= 0.00D+00
 Coeff-Com:  0.592D-03-0.483D-01-0.348D-01 0.108D+01
 Coeff:      0.592D-03-0.483D-01-0.348D-01 0.108D+01
 Gap=     0.444 Goal=   None    Shift=    0.000
 RMSDP=1.40D-05 MaxDP=1.05D-04 DE=-3.72D-06 OVMax= 1.64D-04

 Cycle   5  Pass 1  IDiag  1:
 E= -76.4096217738944     Delta-E=       -0.000000048708 Rises=F Damp=F
 DIIS: error= 7.66D-06 at cycle   5 NSaved=   5.
 NSaved= 5 IEnMin= 5 EnMin= -76.4096217738944     IErMin= 5 ErrMin= 7.66D-06
 ErrMax= 7.66D-06  0.00D+00 EMaxC= 1.00D-01 BMatC= 8.60D-10 BMatP= 1.84D-08
 IDIUse=1 WtCom= 1.00D+00 WtEn= 0.00D+00
 Coeff-Com:  0.395D-02-0.233D-01-0.355D-01 0.117D-01 0.104D+01
 Coeff:      0.395D-02-0.233D-01-0.355D-01 0.117D-01 0.104D+01
 Gap=     0.444 Goal=   None    Shift=    0.000
 RMSDP=3.55D-06 MaxDP=3.26D-05 DE=-4.87D-08 OVMax= 4.73D-05

 Cycle   6  Pass 1  IDiag  1:
 E= -76.4096217767043     Delta-E=       -0.000000002810 Rises=F Damp=F
 DIIS: error= 1.42D-06 at cycle   6 NSaved=   6.
 NSaved= 6 IEnMin= 6 EnMin= -76.4096217767043     IErMin= 6 ErrMin= 1.42D-06
 ErrMax= 1.42D-06  0.00D+00 EMaxC= 1.00D-01 BMatC= 2.06D-11 BMatP= 8.60D-10
 IDIUse=1 WtCom= 1.00D+00 WtEn= 0.00D+00
 Coeff-Com: -0.714D-03 0.558D-02 0.751D-02-0.364D-01-0.171D+00 0.120D+01
 Coeff:     -0.714D-03 0.558D-02 0.751D-02-0.364D-01-0.171D+00 0.120D+01
 Gap=     0.444 Goal=   None    Shift=    0.000
 RMSDP=4.10D-07 MaxDP=4.72D-06 DE=-2.81D-09 OVMax= 9.13D-06

 Cycle   7  Pass 1  IDiag  1:
 E= -76.4096217767925     Delta-E=       -0.000000000088 Rises=F Damp=F
 DIIS: error= 1.56D-07 at cycle   7 NSaved=   7.
 NSaved= 7 IEnMin= 7 EnMin= -76.4096217767925     IErMin= 7 ErrMin= 1.56D-07
 ErrMax= 1.56D-07  0.00D+00 EMaxC= 1.00D-01 BMatC= 3.39D-13 BMatP= 2.06D-11
 IDIUse=1 WtCom= 1.00D+00 WtEn= 0.00D+00
 Coeff-Com:  0.991D-04-0.867D-03-0.115D-02 0.775D-02 0.213D-01-0.281D+00
 Coeff-Com:  0.125D+01
 Coeff:      0.991D-04-0.867D-03-0.115D-02 0.775D-02 0.213D-01-0.281D+00
 Coeff:      0.125D+01
 Gap=     0.444 Goal=   None    Shift=    0.000
 RMSDP=6.60D-08 MaxDP=5.98D-07 DE=-8.83D-11 OVMax= 1.25D-06

 Cycle   8  Pass 1  IDiag  1:
 E= -76.4096217767942     Delta-E=       -0.000000000002 Rises=F Damp=F
 DIIS: error= 8.60D-09 at cycle   8 NSaved=   8.
 NSaved= 8 IEnMin= 8 EnMin= -76.4096217767942     IErMin= 8 ErrMin= 8.60D-09
 ErrMax= 8.60D-09  0.00D+00 EMaxC= 1.00D-01 BMatC= 2.78D-15 BMatP= 3.39D-13
 IDIUse=1 WtCom= 1.00D+00 WtEn= 0.00D+00
 Coeff-Com: -0.402D-05 0.419D-04 0.719D-04-0.519D-03-0.927D-03 0.230D-01
 Coeff-Com: -0.154D+00 0.113D+01
 Coeff:     -0.402D-05 0.419D-04 0.719D-04-0.519D-03-0.927D-03 0.230D-01
 Coeff:     -0.154D+00 0.113D+01
 Gap=     0.444 Goal=   None    Shift=    0.000
 RMSDP=6.45D-09 MaxDP=5.33D-08 DE=-1.72D-12 OVMax= 5.63D-08

 SCF Done:  E(RwB97XD) =  -76.4096217768     A.U. after    8 cycles
            NFock=  8  Conv=0.65D-08     -V/T= 2.0089
 KE= 7.573250255794D+01 PE=-1.986254129518D+02 EE= 3.732920374172D+01
 Leave Link  502 at Wed Dec 29 11:03:36 2021, MaxMem=   131072000 cpu:               4.0 elap:               0.5
 (Enter /public/scc/g16/g16/l701.exe)
 ... and contract with generalized density number  0.
 Compute integral first derivatives.
 R6Disp: Adding Grimme-D2 dispersion energy 1st derivatives to the gradient.
 Leave Link  701 at Wed Dec 29 11:03:36 2021, MaxMem=   131072000 cpu:               1.1 elap:               0.2
 (Enter /public/scc/g16/g16/l702.exe)
 L702 exits ... SP integral derivatives will be done elsewhere.
 Leave Link  702 at Wed Dec 29 11:03:36 2021, MaxMem=   131072000 cpu:               0.1 elap:               0.0
 (Enter /public/scc/g16/g16/l703.exe)
 Integral derivatives from FoFJK, PRISM(SPDF).
 Compute integral first derivatives, UseDBF=F ICtDFT=           0.
 Calling FoFJK, ICntrl=      2127 FMM=F ISym2X=1 I1Cent= 0 IOpClX= 0 NMat=1 NMatS=1 NMatT=0.
 FoFJK:  IHMeth= 1 ICntrl=    2127 DoSepK=T KAlg= 0 I1Cent=           0 FoldK=F
 IRaf=         1 NMat=       1 IRICut=       1 DoRegI=T DoRafI=F ISym2E= 1 IDoP0=0 IntGTp=1.
 FoFCou: FMM=F IPFlag=           0 FMFlag=      100000 FMFlg1=         800
         NFxFlg=           0 DoJE=F BraDBF=F KetDBF=F FulRan=T
         wScrn=  0.000000 ICntrl=      2527 IOpCl=  0 I1Cent=           0 NGrid=           0
         NMat0=    1 NMatS0=      1 NMatT0=    0 NMatD0=    1 NMtDS0=    0 NMtDT0=    0
 Petite list used in FoFCou.
 Leave Link  703 at Wed Dec 29 11:03:37 2021, MaxMem=   131072000 cpu:               3.8 elap:               0.5
 (Enter /public/scc/g16/g16/l716.exe)
 Dipole        =-5.64203238D-17 0.00000000D+00-8.73902805D-01
 ***** Axes restored to original set *****
 -------------------------------------------------------------------
 Center     Atomic                   Forces (Hartrees/Bohr)
 Number     Number              X              Y              Z
 -------------------------------------------------------------------
      1        8          -0.000000000   -0.000000000   -0.001712756
      2        1           0.000000000   -0.000306431    0.000856378
      3        1           0.000000000    0.000306431    0.000856378
 -------------------------------------------------------------------
 Cartesian Forces:  Max     0.001712756 RMS     0.000713995
 Leave Link  716 at Wed Dec 29 11:03:37 2021, MaxMem=   131072000 cpu:               0.2 elap:               0.0
 (Enter /public/scc/g16/g16/l103.exe)

 GradGradGradGradGradGradGradGradGradGradGradGradGradGradGradGradGradGrad
 Berny optimization.
 Using GEDIIS/GDIIS optimizer.
 FormGI is forming the generalized inverse of G from B-inverse, IUseBI=4.
 Internal  Forces:  Max     0.000901885 RMS     0.000811360
 Search for a local minimum.
 Step number   2 out of a maximum of   20
 All quantities printed in internal units (Hartrees-Bohrs-Radians)
 RMS Force = .81136D-03 SwitMx=.10000D-02 MixMth= 2
 Mixed Optimization -- En-DIIS/RFO-DIIS
 Update second derivatives using D2CorX and points    1    2
 DE= -1.85D-04 DEPred=-1.62D-04 R= 1.14D+00
 TightC=F SS=  1.41D+00  RLast= 3.34D-02 DXNew= 5.0454D-01 1.0015D-01
 Trust test= 1.14D+00 RLast= 3.34D-02 DXMaxT set to 3.00D-01
 The second derivative matrix:
                          R1        R2        A1
           R1           0.52605
           R2          -0.01066   0.52605
           A1           0.01709   0.01709   0.14450
 ITU=  1  0
 Use linear search instead of GDIIS.
     Eigenvalues ---    0.14293   0.51695   0.53671
 RFO step:  Lambda=-1.07896816D-06 EMin= 1.42926470D-01
 Quartic linear search produced a step of  0.16078.
 Iteration  1 RMS(Cart)=  0.00325908 RMS(Int)=  0.00000857
 Iteration  2 RMS(Cart)=  0.00000875 RMS(Int)=  0.00000000
 Iteration  3 RMS(Cart)=  0.00000000 RMS(Int)=  0.00000000
 ITry= 1 IFail=0 DXMaxC= 3.82D-03 DCOld= 1.00D+10 DXMaxT= 3.00D-01 DXLimC= 3.00D+00 Rises=F
 ClnCor:  largest displacement from symmetrization is 2.82D-16 for atom     1.
 Variable       Old X    -DE/DX   Delta X   Delta X   Delta X     New X
                                 (Linear)    (Quad)   (Total)
    R1        1.81644  -0.00076  -0.00223   0.00056  -0.00168   1.81477
    R2        1.81644  -0.00076  -0.00223   0.00056  -0.00168   1.81477
    A1        1.84214   0.00090   0.00434   0.00217   0.00651   1.84865
         Item               Value     Threshold  Converged?
 Maximum Force            0.000902     0.000450     NO 
 RMS     Force            0.000811     0.000300     NO 
 Maximum Displacement     0.003815     0.001800     NO 
 RMS     Displacement     0.003255     0.001200     NO 
 Predicted change in Energy=-4.289186D-06
 Lowest energy point so far.  Saving SCF results.
 GradGradGradGradGradGradGradGradGradGradGradGradGradGradGradGradGradGrad

 Leave Link  103 at Wed Dec 29 11:03:37 2021, MaxMem=   131072000 cpu:               0.1 elap:               0.0
 (Enter /public/scc/g16/g16/l202.exe)
                          Input orientation:                          
 ---------------------------------------------------------------------
 Center     Atomic      Atomic             Coordinates (Angstroms)
 Number     Number       Type             X           Y           Z
 ---------------------------------------------------------------------
      1          8           0       -0.000000   -0.000000    0.107375
      2          1           0        0.000000    0.766554   -0.471104
      3          1           0       -0.000000   -0.766554   -0.471104
 ---------------------------------------------------------------------
                    Distance matrix (angstroms):
                    1          2          3
     1  O    0.000000
     2  H    0.960334   0.000000
     3  H    0.960334   1.533107   0.000000
 Stoichiometry    H2O
 Framework group  C2V[C2(O),SGV(H2)]
 Deg. of freedom     2
 Full point group                 C2V     NOp   4
 RotChk:  IX=0 Diff= 2.30D-16
 Largest Abelian subgroup         C2V     NOp   4
 Largest concise Abelian subgroup C2      NOp   2
                         Standard orientation:                         
 ---------------------------------------------------------------------
 Center     Atomic      Atomic             Coordinates (Angstroms)
 Number     Number       Type             X           Y           Z
 ---------------------------------------------------------------------
      1          8           0        0.000000   -0.000000    0.115696
      2          1           0        0.000000    0.766554   -0.462783
      3          1           0       -0.000000   -0.766554   -0.462783
 ---------------------------------------------------------------------
 Rotational constants (GHZ):         843.6703588         426.6943586         283.3748275
 Leave Link  202 at Wed Dec 29 11:03:37 2021, MaxMem=   131072000 cpu:               0.1 elap:               0.0
 (Enter /public/scc/g16/g16/l301.exe)
 Standard basis: 6-31++G(d,p) (6D, 7F)
 Ernie: Thresh=  0.10000D-02 Tol=  0.10000D-05 Strict=F.
 There are    15 symmetry adapted cartesian basis functions of A1  symmetry.
 There are     2 symmetry adapted cartesian basis functions of A2  symmetry.
 There are     5 symmetry adapted cartesian basis functions of B1  symmetry.
 There are     9 symmetry adapted cartesian basis functions of B2  symmetry.
 There are    15 symmetry adapted basis functions of A1  symmetry.
 There are     2 symmetry adapted basis functions of A2  symmetry.
 There are     5 symmetry adapted basis functions of B1  symmetry.
 There are     9 symmetry adapted basis functions of B2  symmetry.
    31 basis functions,    48 primitive gaussians,    31 cartesian basis functions
     5 alpha electrons        5 beta electrons
       nuclear repulsion energy         9.1617157371 Hartrees.
 IExCor= 4639 DFT=T Ex+Corr=wB97XD ExCW=0 ScaHFX=  1.000000
 ScaDFX=  1.000000  1.000000  1.000000  1.000000 ScalE2=  1.000000  1.000000
 IRadAn=      5 IRanWt=     -1 IRanGd=            0 ICorTp=0 IEmpDi=121
 HFx  wShort=  0.000000 wLong=  0.200000 cFull=  0.222036 cShort=  0.000000 cLong=  0.777964
 DFx  wShort=  0.000000 wLong=  0.200000 cFull=  0.000000 cShort=  0.000000 cLong=  1.000000
 NAtoms=    3 NActive=    3 NUniq=    2 SFac= 2.25D+00 NAtFMM=   60 NAOKFM=F Big=F
 Integral buffers will be    131072 words long.
 Raffenetti 2 integral format.
 Two-electron integral symmetry is turned on.
 R6Disp:  Grimme-D2 Dispersion energy=       -0.0000287892 Hartrees.
 Nuclear repulsion after empirical dispersion term =        9.1616869479 Hartrees.
 Leave Link  301 at Wed Dec 29 11:03:37 2021, MaxMem=   131072000 cpu:               0.4 elap:               0.1
 (Enter /public/scc/g16/g16/l302.exe)
 NPDir=0 NMtPBC=     1 NCelOv=     1 NCel=       1 NClECP=     1 NCelD=      1
         NCelK=      1 NCelE2=     1 NClLst=     1 CellRange=     0.0.
 One-electron integrals computed using PRISM.
 One-electron integral symmetry used in STVInt
 NBasis=    31 RedAO= T EigKep=  1.28D-02  NBF=    15     2     5     9
 NBsUse=    31 1.00D-06 EigRej= -1.00D+00 NBFU=    15     2     5     9
 Precomputing XC quadrature grid using
 IXCGrd= 4 IRadAn=           5 IRanWt=          -1 IRanGd=           0 AccXCQ= 0.00D+00.
 Generated NRdTot=       0 NPtTot=           0 NUsed=           0 NTot=          32
 NSgBfM=    31    31    31    31    31 MxSgAt=     3 MxSgA2=     3.
 Leave Link  302 at Wed Dec 29 11:03:37 2021, MaxMem=   131072000 cpu:               1.0 elap:               0.1
 (Enter /public/scc/g16/g16/l303.exe)
 DipDrv:  MaxL=1.
 Leave Link  303 at Wed Dec 29 11:03:37 2021, MaxMem=   131072000 cpu:               0.2 elap:               0.0
 (Enter /public/scc/g16/g16/l401.exe)
 Initial guess from the checkpoint file:  "W.chk"
 B after Tr=    -0.000000   -0.000000    0.000000
         Rot=    1.000000   -0.000000    0.000000    0.000000 Ang=   0.00 deg.
 Guess basis will be translated and rotated to current coordinates.
 JPrj=2 DoOrth=T DoCkMO=T.
 Initial guess orbital symmetries:
       Occupied  (A1) (A1) (B2) (A1) (B1)
       Virtual   (A1) (B2) (A1) (B1) (A1) (B2) (B2) (A1) (B2) (A1)
                 (B1) (A1) (B2) (A1) (A2) (A1) (B1) (A1) (B2) (B2)
                 (A2) (B1) (A1) (A1) (B2) (A1)
 The electronic state of the initial guess is 1-A1.
 Leave Link  401 at Wed Dec 29 11:03:37 2021, MaxMem=   131072000 cpu:               0.6 elap:               0.1
 (Enter /public/scc/g16/g16/l502.exe)
 Keep R1 ints in memory in symmetry-blocked form, NReq=7148193.
 FoFCou: FMM=F IPFlag=           0 FMFlag=           0 FMFlg1=           0
         NFxFlg=           0 DoJE=F BraDBF=F KetDBF=F FulRan=T
         wScrn=  0.000000 ICntrl=       600 IOpCl=  0 I1Cent=           0 NGrid=           0
         NMat0=    1 NMatS0=    496 NMatT0=    0 NMatD0=    1 NMtDS0=    0 NMtDT0=    0
 Petite list used in FoFCou.
 Closed shell SCF:
 Using DIIS extrapolation, IDIIS=  1040.
 NGot=   131072000 LenX=   131032583 LenY=   131031181
 Requested convergence on RMS density matrix=1.00D-08 within 128 cycles.
 Requested convergence on MAX density matrix=1.00D-06.
 Requested convergence on             energy=1.00D-06.
 No special actions if energy rises.

 Cycle   1  Pass 1  IDiag  1:
 E= -76.4096237590391    
 DIIS: error= 2.29D-04 at cycle   1 NSaved=   1.
 NSaved= 1 IEnMin= 1 EnMin= -76.4096237590391     IErMin= 1 ErrMin= 2.29D-04
 ErrMax= 2.29D-04  0.00D+00 EMaxC= 1.00D-01 BMatC= 1.67D-06 BMatP= 1.67D-06
 IDIUse=3 WtCom= 9.98D-01 WtEn= 2.29D-03
 Coeff-Com:  0.100D+01
 Coeff-En:   0.100D+01
 Coeff:      0.100D+01
 Gap=     0.444 Goal=   None    Shift=    0.000
 RMSDP=6.64D-05 MaxDP=4.28D-04              OVMax= 6.68D-04

 Cycle   2  Pass 1  IDiag  1:
 E= -76.4096258012207     Delta-E=       -0.000002042182 Rises=F Damp=F
 DIIS: error= 8.71D-05 at cycle   2 NSaved=   2.
 NSaved= 2 IEnMin= 2 EnMin= -76.4096258012207     IErMin= 2 ErrMin= 8.71D-05
 ErrMax= 8.71D-05  0.00D+00 EMaxC= 1.00D-01 BMatC= 1.97D-07 BMatP= 1.67D-06
 IDIUse=1 WtCom= 1.00D+00 WtEn= 0.00D+00
 Coeff-Com:  0.466D-01 0.953D+00
 Coeff:      0.466D-01 0.953D+00
 Gap=     0.444 Goal=   None    Shift=    0.000
 RMSDP=1.82D-05 MaxDP=1.89D-04 DE=-2.04D-06 OVMax= 2.14D-04

 Cycle   3  Pass 1  IDiag  1:
 E= -76.4096258852137     Delta-E=       -0.000000083993 Rises=F Damp=F
 DIIS: error= 7.43D-05 at cycle   3 NSaved=   3.
 NSaved= 3 IEnMin= 3 EnMin= -76.4096258852137     IErMin= 3 ErrMin= 7.43D-05
 ErrMax= 7.43D-05  0.00D+00 EMaxC= 1.00D-01 BMatC= 1.52D-07 BMatP= 1.97D-07
 IDIUse=1 WtCom= 1.00D+00 WtEn= 0.00D+00
 Coeff-Com: -0.850D-01 0.501D+00 0.585D+00
 Coeff:     -0.850D-01 0.501D+00 0.585D+00
 Gap=     0.444 Goal=   None    Shift=    0.000
 RMSDP=9.29D-06 MaxDP=8.92D-05 DE=-8.40D-08 OVMax= 1.05D-04

 Cycle   4  Pass 1  IDiag  1:
 E= -76.4096259952428     Delta-E=       -0.000000110029 Rises=F Damp=F
 DIIS: error= 4.05D-06 at cycle   4 NSaved=   4.
 NSaved= 4 IEnMin= 4 EnMin= -76.4096259952428     IErMin= 4 ErrMin= 4.05D-06
 ErrMax= 4.05D-06  0.00D+00 EMaxC= 1.00D-01 BMatC= 4.27D-10 BMatP= 1.52D-07
 IDIUse=1 WtCom= 1.00D+00 WtEn= 0.00D+00
 Coeff-Com:  0.141D-01-0.122D+00-0.104D+00 0.121D+01
 Coeff:      0.141D-01-0.122D+00-0.104D+00 0.121D+01
 Gap=     0.444 Goal=   None    Shift=    0.000
 RMSDP=3.06D-06 MaxDP=2.30D-05 DE=-1.10D-07 OVMax= 2.95D-05

 Cycle   5  Pass 1  IDiag  1:
 E= -76.4096259965319     Delta-E=       -0.000000001289 Rises=F Damp=F
 DIIS: error= 7.87D-07 at cycle   5 NSaved=   5.
 NSaved= 5 IEnMin= 5 EnMin= -76.4096259965319     IErMin= 5 ErrMin= 7.87D-07
 ErrMax= 7.87D-07  0.00D+00 EMaxC= 1.00D-01 BMatC= 8.53D-12 BMatP= 4.27D-10
 IDIUse=1 WtCom= 1.00D+00 WtEn= 0.00D+00
 Coeff-Com:  0.151D-02-0.953D-02-0.107D-01-0.201D-01 0.104D+01
 Coeff:      0.151D-02-0.953D-02-0.107D-01-0.201D-01 0.104D+01
 Gap=     0.444 Goal=   None    Shift=    0.000
 RMSDP=3.43D-07 MaxDP=3.28D-06 DE=-1.29D-09 OVMax= 4.58D-06

 Cycle   6  Pass 1  IDiag  1:
 E= -76.4096259965605     Delta-E=       -0.000000000029 Rises=F Damp=F
 DIIS: error= 1.98D-07 at cycle   6 NSaved=   6.
 NSaved= 6 IEnMin= 6 EnMin= -76.4096259965605     IErMin= 6 ErrMin= 1.98D-07
 ErrMax= 1.98D-07  0.00D+00 EMaxC= 1.00D-01 BMatC= 4.58D-13 BMatP= 8.53D-12
 IDIUse=1 WtCom= 1.00D+00 WtEn= 0.00D+00
 Coeff-Com: -0.801D-03 0.698D-02 0.619D-02-0.646D-01-0.320D-01 0.108D+01
 Coeff:     -0.801D-03 0.698D-02 0.619D-02-0.646D-01-0.320D-01 0.108D+01
 Gap=     0.444 Goal=   None    Shift=    0.000
 RMSDP=5.30D-08 MaxDP=5.92D-07 DE=-2.85D-11 OVMax= 1.20D-06

 Cycle   7  Pass 1  IDiag  1:
 E= -76.4096259965621     Delta-E=       -0.000000000002 Rises=F Damp=F
 DIIS: error= 2.81D-08 at cycle   7 NSaved=   7.
 NSaved= 7 IEnMin= 7 EnMin= -76.4096259965621     IErMin= 7 ErrMin= 2.81D-08
 ErrMax= 2.81D-08  0.00D+00 EMaxC= 1.00D-01 BMatC= 9.99D-15 BMatP= 4.58D-13
 IDIUse=1 WtCom= 1.00D+00 WtEn= 0.00D+00
 Coeff-Com:  0.151D-03-0.139D-02-0.119D-02 0.153D-01-0.196D-01-0.255D+00
 Coeff-Com:  0.126D+01
 Coeff:      0.151D-03-0.139D-02-0.119D-02 0.153D-01-0.196D-01-0.255D+00
 Coeff:      0.126D+01
 Gap=     0.444 Goal=   None    Shift=    0.000
 RMSDP=1.22D-08 MaxDP=1.26D-07 DE=-1.62D-12 OVMax= 2.22D-07

 Cycle   8  Pass 1  IDiag  1:
 E= -76.4096259965623     Delta-E=       -0.000000000000 Rises=F Damp=F
 DIIS: error= 1.44D-09 at cycle   8 NSaved=   8.
 NSaved= 8 IEnMin= 8 EnMin= -76.4096259965623     IErMin= 8 ErrMin= 1.44D-09
 ErrMax= 1.44D-09  0.00D+00 EMaxC= 1.00D-01 BMatC= 6.99D-17 BMatP= 9.99D-15
 IDIUse=1 WtCom= 1.00D+00 WtEn= 0.00D+00
 Coeff-Com: -0.108D-04 0.103D-03 0.101D-03-0.128D-02 0.264D-02 0.232D-01
 Coeff-Com: -0.160D+00 0.113D+01
 Coeff:     -0.108D-04 0.103D-03 0.101D-03-0.128D-02 0.264D-02 0.232D-01
 Coeff:     -0.160D+00 0.113D+01
 Gap=     0.444 Goal=   None    Shift=    0.000
 RMSDP=9.32D-10 MaxDP=7.58D-09 DE=-2.13D-13 OVMax= 8.74D-09

 SCF Done:  E(RwB97XD) =  -76.4096259966     A.U. after    8 cycles
            NFock=  8  Conv=0.93D-09     -V/T= 2.0089
 KE= 7.573493423848D+01 PE=-1.986421504095D+02 EE= 3.733590322648D+01
 Leave Link  502 at Wed Dec 29 11:03:38 2021, MaxMem=   131072000 cpu:               3.9 elap:               0.5
 (Enter /public/scc/g16/g16/l701.exe)
 ... and contract with generalized density number  0.
 Compute integral first derivatives.
 R6Disp: Adding Grimme-D2 dispersion energy 1st derivatives to the gradient.
 Leave Link  701 at Wed Dec 29 11:03:38 2021, MaxMem=   131072000 cpu:               1.2 elap:               0.2
 (Enter /public/scc/g16/g16/l702.exe)
 L702 exits ... SP integral derivatives will be done elsewhere.
 Leave Link  702 at Wed Dec 29 11:03:38 2021, MaxMem=   131072000 cpu:               0.1 elap:               0.0
 (Enter /public/scc/g16/g16/l703.exe)
 Integral derivatives from FoFJK, PRISM(SPDF).
 Compute integral first derivatives, UseDBF=F ICtDFT=           0.
 Calling FoFJK, ICntrl=      2127 FMM=F ISym2X=1 I1Cent= 0 IOpClX= 0 NMat=1 NMatS=1 NMatT=0.
 FoFJK:  IHMeth= 1 ICntrl=    2127 DoSepK=T KAlg= 0 I1Cent=           0 FoldK=F
 IRaf=         1 NMat=       1 IRICut=       1 DoRegI=T DoRafI=F ISym2E= 1 IDoP0=0 IntGTp=1.
 FoFCou: FMM=F IPFlag=           0 FMFlag=      100000 FMFlg1=         800
         NFxFlg=           0 DoJE=F BraDBF=F KetDBF=F FulRan=T
         wScrn=  0.000000 ICntrl=      2527 IOpCl=  0 I1Cent=           0 NGrid=           0
         NMat0=    1 NMatS0=      1 NMatT0=    0 NMatD0=    1 NMtDS0=    0 NMtDT0=    0
 Petite list used in FoFCou.
 Leave Link  703 at Wed Dec 29 11:03:39 2021, MaxMem=   131072000 cpu:               3.9 elap:               0.5
 (Enter /public/scc/g16/g16/l716.exe)
 Dipole        =-5.65395730D-17 0.00000000D+00-8.71251324D-01
 ***** Axes restored to original set *****
 -------------------------------------------------------------------
 Center     Atomic                   Forces (Hartrees/Bohr)
 Number     Number              X              Y              Z
 -------------------------------------------------------------------
      1        8          -0.000000000   -0.000000000   -0.000020389
      2        1           0.000000000   -0.000022373    0.000010194
      3        1           0.000000000    0.000022373    0.000010194
 -------------------------------------------------------------------
 Cartesian Forces:  Max     0.000022373 RMS     0.000013436
 Leave Link  716 at Wed Dec 29 11:03:39 2021, MaxMem=   131072000 cpu:               0.2 elap:               0.1
 (Enter /public/scc/g16/g16/l103.exe)

 GradGradGradGradGradGradGradGradGradGradGradGradGradGradGradGradGradGrad
 Berny optimization.
 Using GEDIIS/GDIIS optimizer.
 FormGI is forming the generalized inverse of G from B-inverse, IUseBI=4.
 Internal  Forces:  Max     0.000023999 RMS     0.000020378
 Search for a local minimum.
 Step number   3 out of a maximum of   20
 All quantities printed in internal units (Hartrees-Bohrs-Radians)
 RMS Force = .20378D-04 SwitMx=.10000D-02 MixMth= 2
 Mixed Optimization -- En-DIIS/RFO-DIIS
 Swapping is turned off.
 Update second derivatives using D2CorX and points    1    2    3
 DE= -4.22D-06 DEPred=-4.29D-06 R= 9.84D-01
 TightC=F SS=  1.41D+00  RLast= 6.93D-03 DXNew= 5.0454D-01 2.0782D-02
 Trust test= 9.84D-01 RLast= 6.93D-03 DXMaxT set to 3.00D-01
 The second derivative matrix:
                          R1        R2        A1
           R1           0.52199
           R2          -0.01473   0.52199
           A1           0.01722   0.01722   0.14891
 ITU=  1  1  0
     Eigenvalues ---    0.14726   0.50891   0.53671
 En-DIIS/RFO-DIIS/Sim-DIIS IScMMF=       -3 using points:     3    2
 RFO step:  Lambda= 0.00000000D+00.
 NNeg= 0 NGDIIS= 2 SimSw=  2.50D-03 Rises=F DC= -4.22D-06 SmlDif=  1.00D-05
 NRisDI= 0 DoIntr=F SqrtH=F CThrHd= 10.0 CDAdj=  3.0
 RMS Error=  0.4868316187D-04 NUsed= 2 OKEnD=F EnDIS=F
 InvSVX:  RCond= 5.40D-05 Info=           0 Equed=N FErr=  8.92D-16 BErr=  7.30D-18
 DidBck=F Rises=F RFO-DIIS coefs:    0.99577    0.00423
 Iteration  1 RMS(Cart)=  0.00005428 RMS(Int)=  0.00000000
 Iteration  2 RMS(Cart)=  0.00000000 RMS(Int)=  0.00000000
 ITry= 1 IFail=0 DXMaxC= 6.61D-05 DCOld= 1.00D+10 DXMaxT= 3.00D-01 DXLimC= 3.00D+00 Rises=F
 ClnCor:  largest displacement from symmetrization is 1.26D-15 for atom     3.
 Variable       Old X    -DE/DX   Delta X   Delta X   Delta X     New X
                                 (Linear)    (Quad)   (Total)
    R1        1.81477  -0.00002   0.00001  -0.00005  -0.00005   1.81472
    R2        1.81477  -0.00002   0.00001  -0.00005  -0.00005   1.81472
    A1        1.84865  -0.00001  -0.00003  -0.00003  -0.00005   1.84860
         Item               Value     Threshold  Converged?
 Maximum Force            0.000024     0.000450     YES
 RMS     Force            0.000020     0.000300     YES
 Maximum Displacement     0.000066     0.001800     YES
 RMS     Displacement     0.000054     0.001200     YES
 Predicted change in Energy=-1.355363D-09
 Optimization completed.
    -- Stationary point found.
                           ----------------------------
                           !   Optimized Parameters   !
                           ! (Angstroms and Degrees)  !
 --------------------------                            --------------------------
 ! Name  Definition              Value          Derivative Info.                !
 --------------------------------------------------------------------------------
 ! R1    R(1,2)                  0.9603         -DE/DX =    0.0                 !
 ! R2    R(1,3)                  0.9603         -DE/DX =    0.0                 !
 ! A1    A(2,1,3)              105.92           -DE/DX =    0.0                 !
 --------------------------------------------------------------------------------
 Lowest energy point so far.  Saving SCF results.
 Largest change from initial coordinates is atom    2       0.015 Angstoms.
 GradGradGradGradGradGradGradGradGradGradGradGradGradGradGradGradGradGrad

 Leave Link  103 at Wed Dec 29 11:03:39 2021, MaxMem=   131072000 cpu:               0.1 elap:               0.0
 (Enter /public/scc/g16/g16/l202.exe)
                          Input orientation:                          
 ---------------------------------------------------------------------
 Center     Atomic      Atomic             Coordinates (Angstroms)
 Number     Number       Type             X           Y           Z
 ---------------------------------------------------------------------
      1          8           0        0.000000   -0.000000    0.107375
      2          1           0        0.000000    0.766554   -0.471104
      3          1           0       -0.000000   -0.766554   -0.471104
 ---------------------------------------------------------------------
                    Distance matrix (angstroms):
                    1          2          3
     1  O    0.000000
     2  H    0.960334   0.000000
     3  H    0.960334   1.533107   0.000000
 Stoichiometry    H2O
 Framework group  C2V[C2(O),SGV(H2)]
 Deg. of freedom     2
 Full point group                 C2V     NOp   4
 RotChk:  IX=0 Diff= 1.35D-15
 Largest Abelian subgroup         C2V     NOp   4
 Largest concise Abelian subgroup C2      NOp   2
                         Standard orientation:                         
 ---------------------------------------------------------------------
 Center     Atomic      Atomic             Coordinates (Angstroms)
 Number     Number       Type             X           Y           Z
 ---------------------------------------------------------------------
      1          8           0        0.000000    0.000000    0.115696
      2          1           0       -0.000000    0.766554   -0.462783
      3          1           0       -0.000000   -0.766554   -0.462783
 ---------------------------------------------------------------------
 Rotational constants (GHZ):         843.6703588         426.6943586         283.3748275
 Leave Link  202 at Wed Dec 29 11:03:39 2021, MaxMem=   131072000 cpu:               0.1 elap:               0.0
 (Enter /public/scc/g16/g16/l601.exe)
 Copying SCF densities to generalized density rwf, IOpCl= 0 IROHF=0.

 **********************************************************************

            Population analysis using the SCF density.

 **********************************************************************

 Orbital symmetries:
       Occupied  (A1) (A1) (B2) (A1) (B1)
       Virtual   (A1) (B2) (A1) (B1) (A1) (B2) (B2) (A1) (B2) (A1)
                 (B1) (A1) (B2) (A1) (A2) (A1) (B1) (B2) (A1) (B2)
                 (A2) (B1) (A1) (A1) (B2) (A1)
 The electronic state is 1-A1.
 Alpha  occ. eigenvalues --  -19.28769  -1.12127  -0.62917  -0.47905  -0.40538
 Alpha virt. eigenvalues --    0.03869   0.07423   0.21923   0.23733   0.24259
 Alpha virt. eigenvalues --    0.28516   0.30058   0.35561   1.01354   1.09857
 Alpha virt. eigenvalues --    1.20498   1.21699   1.25147   1.45072   1.59163
 Alpha virt. eigenvalues --    1.63720   1.72137   2.33776   2.33990   2.60944
 Alpha virt. eigenvalues --    2.73196   2.74243   3.12601   3.45252   3.66102
 Alpha virt. eigenvalues --    4.12303
          Condensed to atoms (all electrons):
               1          2          3
     1  O    8.128830   0.288389   0.288389
     2  H    0.288389   0.390046  -0.031238
     3  H    0.288389  -0.031238   0.390046
 Mulliken charges:
               1
     1  O   -0.705607
     2  H    0.352804
     3  H    0.352804
 Sum of Mulliken charges =   0.00000
 Mulliken charges with hydrogens summed into heavy atoms:
               1
     1  O    0.000000
 Electronic spatial extent (au):  <R**2>=             19.8685
 Charge=              0.0000 electrons
 Dipole moment (field-independent basis, Debye):
    X=             -0.0000    Y=             -0.0000    Z=             -2.2145  Tot=              2.2145
 Quadrupole moment (field-independent basis, Debye-Ang):
   XX=             -7.7783   YY=             -4.2864   ZZ=             -6.4426
   XY=              0.0000   XZ=              0.0000   YZ=              0.0000
 Traceless Quadrupole moment (field-independent basis, Debye-Ang):
   XX=             -1.6092   YY=              1.8827   ZZ=             -0.2735
   XY=              0.0000   XZ=              0.0000   YZ=              0.0000
 Octapole moment (field-independent basis, Debye-Ang**2):
  XXX=              0.0000  YYY=             -0.0000  ZZZ=             -1.6210  XYY=             -0.0000
  XXY=             -0.0000  XXZ=             -0.4771  XZZ=             -0.0000  YZZ=             -0.0000
  YYZ=             -1.4214  XYZ=             -0.0000
 Hexadecapole moment (field-independent basis, Debye-Ang**3):
 XXXX=             -7.5504 YYYY=             -6.2333 ZZZZ=             -7.7749 XXXY=             -0.0000
 XXXZ=             -0.0000 YYYX=             -0.0000 YYYZ=              0.0000 ZZZX=             -0.0000
 ZZZY=              0.0000 XXYY=             -2.5864 XXZZ=             -2.6057 YYZZ=             -2.0215
 XXYZ=              0.0000 YYXZ=              0.0000 ZZXY=              0.0000
 N-N= 9.161686947949D+00 E-N=-1.986421503894D+02  KE= 7.573493423848D+01
 Symmetry A1   KE= 6.765688467972D+01
 Symmetry A2   KE=-3.116849533903D-36
 Symmetry B1   KE= 4.457675518026D+00
 Symmetry B2   KE= 3.620374040725D+00
 No NMR shielding tensors so no spin-rotation constants.
 Leave Link  601 at Wed Dec 29 11:03:39 2021, MaxMem=   131072000 cpu:               1.0 elap:               0.1
 (Enter /public/scc/g16/g16/l9999.exe)
 1\1\GINC-NODE25\FOpt\RwB97XD\6-31++G(d,p)\H2O1\ROOT\29-Dec-2021\0\\#p 
 wB97XD/6-31++G(d,p) opt freq\\aaaaa\\0,1\O,0.,0.,0.1073751014\H,0.,0.7
 665536924,-0.4711035507\H,0.,-0.7665536924,-0.4711035507\\Version=ES64
 L-G16RevA.03\State=1-A1\HF=-76.409626\RMSD=9.322e-10\RMSF=1.344e-05\Di
 pole=0.,0.,-0.8712513\Quadrupole=-1.1963801,1.3997411,-0.2033609,0.,0.
 ,0.\PG=C02V [C2(O1),SGV(H2)]\\@


 WE SHOULD BE CAREFUL TO GET OUT OF AN EXPERIENCE ONLY THE WISDOM
 THAT IS IN IT -- AND STOP THERE;
 LEST WE BE LIKE THE CAT THAT SITS DOWN ON A HOT STOVE-LID.
 SHE WILL NEVER SIT DOWN ON A HOT STOVE LID AGAIN;
 BUT ALSO SHE WILL NEVER SIT DOWN ON A COLD ONE ANY MORE.

                                                     -- MARK TWAIN
 Leave Link 9999 at Wed Dec 29 11:03:40 2021, MaxMem=   131072000 cpu:               0.3 elap:               0.1
 Job cpu time:       0 days  0 hours  0 minutes 40.4 seconds.
 Elapsed time:       0 days  0 hours  0 minutes  5.8 seconds.
 File lengths (MBytes):  RWF=      6 Int=      0 D2E=      0 Chk=      2 Scr=      1
 Normal termination of Gaussian 16 at Wed Dec 29 11:03:40 2021.
 (Enter /public/scc/g16/g16/l1.exe)
 Link1:  Proceeding to internal job step number  2.
 ----------------------------------------------------------------------
 #P Geom=AllCheck Guess=TCheck SCRF=Check GenChk RwB97XD/6-31++G(d,p) F
 req
 ----------------------------------------------------------------------
 1/10=4,29=7,30=1,38=1,40=1/1,3;
 2/12=2,40=1/2;
 3/5=1,6=6,7=1111,11=2,14=-4,25=1,30=1,70=2,71=2,74=-58,116=1,140=1/1,2,3;
 4/5=101/1;
 5/5=2,38=6,98=1/2;
 8/6=4,10=90,11=11/1;
 11/6=1,8=1,9=11,15=111,16=1/1,2,10;
 10/6=1/2;
 6/7=2,8=2,9=2,10=2,28=1/1;
 7/8=1,10=1,25=1/1,2,3,16;
 1/10=4,30=1/3;
 99//99;
 Leave Link    1 at Wed Dec 29 11:03:40 2021, MaxMem=   131072000 cpu:               0.3 elap:               0.0
 (Enter /public/scc/g16/g16/l101.exe)
 Structure from the checkpoint file:  "W.chk"
 -----
 aaaaa
 -----
 Charge =  0 Multiplicity = 1
 Redundant internal coordinates found in file.  (old form).
 O,0,0.,0.,0.1073751014
 H,0,0.,0.7665536924,-0.4711035507
 H,0,0.,-0.7665536924,-0.4711035507
 Recover connectivity data from disk.
 ITRead=  0  0  0
 MicOpt= -1 -1 -1
 NAtoms=      3 NQM=        3 NQMF=       0 NMMI=      0 NMMIF=      0
                NMic=       0 NMicF=      0.
                    Isotopes and Nuclear Properties:
 (Nuclear quadrupole moments (NQMom) in fm**2, nuclear magnetic moments (NMagM)
  in nuclear magnetons)

  Atom         1           2           3
 IAtWgt=          16           1           1
 AtmWgt=  15.9949146   1.0078250   1.0078250
 NucSpn=           0           1           1
 AtZEff=   5.6000000   1.0000000   1.0000000
 NQMom=    0.0000000   0.0000000   0.0000000
 NMagM=    0.0000000   2.7928460   2.7928460
 AtZNuc=   8.0000000   1.0000000   1.0000000
 Leave Link  101 at Wed Dec 29 11:03:40 2021, MaxMem=   131072000 cpu:               0.8 elap:               0.1
 (Enter /public/scc/g16/g16/l103.exe)

 GradGradGradGradGradGradGradGradGradGradGradGradGradGradGradGradGradGrad
 Berny optimization.
 Initialization pass.
                           ----------------------------
                           !    Initial Parameters    !
                           ! (Angstroms and Degrees)  !
 --------------------------                            --------------------------
 ! Name  Definition              Value          Derivative Info.                !
 --------------------------------------------------------------------------------
 ! R1    R(1,2)                  0.9603         calculate D2E/DX2 analytically  !
 ! R2    R(1,3)                  0.9603         calculate D2E/DX2 analytically  !
 ! A1    A(2,1,3)              105.92           calculate D2E/DX2 analytically  !
 --------------------------------------------------------------------------------
 Trust Radius=3.00D-01 FncErr=1.00D-07 GrdErr=1.00D-07 EigMax=2.50D+02 EigMin=1.00D-04
 Number of steps in this run=      2 maximum allowed number of steps=      2.
 GradGradGradGradGradGradGradGradGradGradGradGradGradGradGradGradGradGrad

 Leave Link  103 at Wed Dec 29 11:03:40 2021, MaxMem=   131072000 cpu:               0.1 elap:               0.0
 (Enter /public/scc/g16/g16/l202.exe)
                          Input orientation:                          
 ---------------------------------------------------------------------
 Center     Atomic      Atomic             Coordinates (Angstroms)
 Number     Number       Type             X           Y           Z
 ---------------------------------------------------------------------
      1          8           0        0.000000   -0.000000    0.107375
      2          1           0        0.000000    0.766554   -0.471104
      3          1           0       -0.000000   -0.766554   -0.471104
 ---------------------------------------------------------------------
                    Distance matrix (angstroms):
                    1          2          3
     1  O    0.000000
     2  H    0.960334   0.000000
     3  H    0.960334   1.533107   0.000000
 Stoichiometry    H2O
 Framework group  C2V[C2(O),SGV(H2)]
 Deg. of freedom     2
 Full point group                 C2V     NOp   4
 RotChk:  IX=0 Diff= 8.03D-16
 Largest Abelian subgroup         C2V     NOp   4
 Largest concise Abelian subgroup C2      NOp   2
                         Standard orientation:                         
 ---------------------------------------------------------------------
 Center     Atomic      Atomic             Coordinates (Angstroms)
 Number     Number       Type             X           Y           Z
 ---------------------------------------------------------------------
      1          8           0        0.000000    0.000000    0.115696
      2          1           0       -0.000000    0.766554   -0.462783
      3          1           0       -0.000000   -0.766554   -0.462783
 ---------------------------------------------------------------------
 Rotational constants (GHZ):         843.6703588         426.6943586         283.3748275
 Leave Link  202 at Wed Dec 29 11:03:40 2021, MaxMem=   131072000 cpu:               0.1 elap:               0.0
 (Enter /public/scc/g16/g16/l301.exe)
 Standard basis: 6-31++G(d,p) (6D, 7F)
 Ernie: Thresh=  0.10000D-02 Tol=  0.10000D-05 Strict=F.
 There are    15 symmetry adapted cartesian basis functions of A1  symmetry.
 There are     2 symmetry adapted cartesian basis functions of A2  symmetry.
 There are     5 symmetry adapted cartesian basis functions of B1  symmetry.
 There are     9 symmetry adapted cartesian basis functions of B2  symmetry.
 There are    15 symmetry adapted basis functions of A1  symmetry.
 There are     2 symmetry adapted basis functions of A2  symmetry.
 There are     5 symmetry adapted basis functions of B1  symmetry.
 There are     9 symmetry adapted basis functions of B2  symmetry.
    31 basis functions,    48 primitive gaussians,    31 cartesian basis functions
     5 alpha electrons        5 beta electrons
       nuclear repulsion energy         9.1617157371 Hartrees.
 IExCor= 4639 DFT=T Ex+Corr=wB97XD ExCW=0 ScaHFX=  1.000000
 ScaDFX=  1.000000  1.000000  1.000000  1.000000 ScalE2=  1.000000  1.000000
 IRadAn=      5 IRanWt=     -1 IRanGd=            0 ICorTp=0 IEmpDi=121
 HFx  wShort=  0.000000 wLong=  0.200000 cFull=  0.222036 cShort=  0.000000 cLong=  0.777964
 DFx  wShort=  0.000000 wLong=  0.200000 cFull=  0.000000 cShort=  0.000000 cLong=  1.000000
 NAtoms=    3 NActive=    3 NUniq=    2 SFac= 2.25D+00 NAtFMM=   60 NAOKFM=F Big=F
 Integral buffers will be    131072 words long.
 Raffenetti 2 integral format.
 Two-electron integral symmetry is turned on.
 R6Disp:  Grimme-D2 Dispersion energy=       -0.0000287892 Hartrees.
 Nuclear repulsion after empirical dispersion term =        9.1616869479 Hartrees.
 Leave Link  301 at Wed Dec 29 11:03:40 2021, MaxMem=   131072000 cpu:               0.4 elap:               0.1
 (Enter /public/scc/g16/g16/l302.exe)
 NPDir=0 NMtPBC=     1 NCelOv=     1 NCel=       1 NClECP=     1 NCelD=      1
         NCelK=      1 NCelE2=     1 NClLst=     1 CellRange=     0.0.
 One-electron integrals computed using PRISM.
 One-electron integral symmetry used in STVInt
 NBasis=    31 RedAO= T EigKep=  1.28D-02  NBF=    15     2     5     9
 NBsUse=    31 1.00D-06 EigRej= -1.00D+00 NBFU=    15     2     5     9
 Precomputing XC quadrature grid using
 IXCGrd= 4 IRadAn=           5 IRanWt=          -1 IRanGd=           0 AccXCQ= 0.00D+00.
 Generated NRdTot=       0 NPtTot=           0 NUsed=           0 NTot=          32
 NSgBfM=    31    31    31    31    31 MxSgAt=     3 MxSgA2=     3.
 Leave Link  302 at Wed Dec 29 11:03:40 2021, MaxMem=   131072000 cpu:               1.0 elap:               0.1
 (Enter /public/scc/g16/g16/l303.exe)
 DipDrv:  MaxL=1.
 Leave Link  303 at Wed Dec 29 11:03:40 2021, MaxMem=   131072000 cpu:               0.2 elap:               0.1
 (Enter /public/scc/g16/g16/l401.exe)
 Initial guess from the checkpoint file:  "W.chk"
 B after Tr=     0.000000    0.000000   -0.000000
         Rot=    1.000000   -0.000000   -0.000000   -0.000000 Ang=   0.00 deg.
 Guess basis will be translated and rotated to current coordinates.
 JPrj=2 DoOrth=T DoCkMO=T.
 Initial guess orbital symmetries:
       Occupied  (A1) (A1) (B2) (A1) (B1)
       Virtual   (A1) (B2) (A1) (B1) (A1) (B2) (B2) (A1) (B2) (A1)
                 (B1) (A1) (B2) (A1) (A2) (A1) (B1) (B2) (A1) (B2)
                 (A2) (B1) (A1) (A1) (B2) (A1)
 The electronic state of the initial guess is 1-A1.
 Leave Link  401 at Wed Dec 29 11:03:40 2021, MaxMem=   131072000 cpu:               0.6 elap:               0.1
 (Enter /public/scc/g16/g16/l502.exe)
 Keep R1 ints in memory in symmetry-blocked form, NReq=7148193.
 FoFCou: FMM=F IPFlag=           0 FMFlag=           0 FMFlg1=           0
         NFxFlg=           0 DoJE=F BraDBF=F KetDBF=F FulRan=T
         wScrn=  0.000000 ICntrl=       600 IOpCl=  0 I1Cent=           0 NGrid=           0
         NMat0=    1 NMatS0=    496 NMatT0=    0 NMatD0=    1 NMtDS0=    0 NMtDT0=    0
 Petite list used in FoFCou.
 Closed shell SCF:
 Using DIIS extrapolation, IDIIS=  1040.
 NGot=   131072000 LenX=   131032583 LenY=   131031181
 Requested convergence on RMS density matrix=1.00D-08 within 128 cycles.
 Requested convergence on MAX density matrix=1.00D-06.
 Requested convergence on             energy=1.00D-06.
 No special actions if energy rises.

 Cycle   1  Pass 1  IDiag  1:
 E= -76.4096259965623    
 DIIS: error= 1.71D-10 at cycle   1 NSaved=   1.
 NSaved= 1 IEnMin= 1 EnMin= -76.4096259965623     IErMin= 1 ErrMin= 1.71D-10
 ErrMax= 1.71D-10  0.00D+00 EMaxC= 1.00D-01 BMatC= 9.37D-19 BMatP= 9.37D-19
 IDIUse=1 WtCom= 1.00D+00 WtEn= 0.00D+00
 Coeff-Com:  0.100D+01
 Coeff:      0.100D+01
 Gap=     0.444 Goal=   None    Shift=    0.000
 Skip diagonalization as Alpha Fock matrix is already diagonal.
 RMSDP=0.00D+00 MaxDP=0.00D+00              OVMax= 0.00D+00

 SCF Done:  E(RwB97XD) =  -76.4096259966     A.U. after    1 cycles
            NFock=  1  Conv=0.00D+00     -V/T= 2.0089
 KE= 7.573493423848D+01 PE=-1.986421503894D+02 EE= 3.733590320644D+01
 Leave Link  502 at Wed Dec 29 11:03:41 2021, MaxMem=   131072000 cpu:               2.6 elap:               0.3
 (Enter /public/scc/g16/g16/l801.exe)
 DoSCS=F DFT=T ScalE2(SS,OS)=  1.000000  1.000000
 Range of M.O.s used for correlation:     1    31
 NBasis=    31 NAE=     5 NBE=     5 NFC=     0 NFV=     0
 NROrb=     31 NOA=     5 NOB=     5 NVA=    26 NVB=    26
 Leave Link  801 at Wed Dec 29 11:03:41 2021, MaxMem=   131072000 cpu:               0.2 elap:               0.0
 (Enter /public/scc/g16/g16/l1101.exe)
 Using compressed storage, NAtomX=     3.
 Will process      4 centers per pass.
 R6Disp: Adding Grimme-D2 dispersion energy 1st derivatives to the gradient.
 Leave Link 1101 at Wed Dec 29 11:03:41 2021, MaxMem=   131072000 cpu:               1.0 elap:               0.1
 (Enter /public/scc/g16/g16/l1102.exe)
 Symmetrizing basis deriv contribution to polar:
 IMax=3 JMax=2 DiffMx= 0.00D+00
 Leave Link 1102 at Wed Dec 29 11:03:41 2021, MaxMem=   131072000 cpu:               0.2 elap:               0.0
 (Enter /public/scc/g16/g16/l1110.exe)
 Forming Gx(P) for the SCF density, NAtomX=     3.
 Integral derivatives from FoFJK, PRISM(SPDF).
 Do as many integral derivatives as possible in FoFJK.
 G2DrvN: MDV=     131071660.
 G2DrvN: will do     4 centers at a time, making    1 passes.
 Calling FoFCou, ICntrl=  3107 FMM=F I1Cent=   0 AccDes= 0.00D+00.
 FoFJK:  IHMeth= 1 ICntrl=    3107 DoSepK=T KAlg= 0 I1Cent=           0 FoldK=F
 IRaf=         1 NMat=       1 IRICut=       1 DoRegI=T DoRafI=F ISym2E= 1 IDoP0=0 IntGTp=1.
 FoFCou: FMM=F IPFlag=           0 FMFlag=      100000 FMFlg1=           0
         NFxFlg=           0 DoJE=F BraDBF=F KetDBF=F FulRan=T
         wScrn=  0.000000 ICntrl=      3507 IOpCl=  0 I1Cent=           0 NGrid=           0
         NMat0=    1 NMatS0=      1 NMatT0=    0 NMatD0=    1 NMtDS0=    0 NMtDT0=    0
 Petite list used in FoFCou.
 End of G2Drv F.D. properties file   721 does not exist.
 End of G2Drv F.D. properties file   722 does not exist.
 End of G2Drv F.D. properties file   788 does not exist.
 Leave Link 1110 at Wed Dec 29 11:03:41 2021, MaxMem=   131072000 cpu:               4.3 elap:               0.6
 (Enter /public/scc/g16/g16/l1002.exe)
 Minotr:  Closed shell wavefunction.
          IDoAtm=111
          Direct CPHF calculation.
          Differentiating once with respect to electric field.
                with respect to dipole field.
          Differentiating once with respect to nuclear coordinates.
          Using symmetry in CPHF.
          Requested convergence is 1.0D-08 RMS, and 1.0D-07 maximum.
          Secondary convergence is 1.0D-12 RMS, and 1.0D-12 maximum.
          NewPWx=T KeepS1=F KeepF1=F KeepIn=T MapXYZ=F SortEE=F KeepMc=T.
          916 words used for storage of precomputed grid.
 Keep R1 ints in memory in symmetry-blocked form, NReq=7123035.
 FoFCou: FMM=F IPFlag=           0 FMFlag=           0 FMFlg1=           0
         NFxFlg=           0 DoJE=F BraDBF=F KetDBF=F FulRan=T
         wScrn=  0.000000 ICntrl=       600 IOpCl=  0 I1Cent=           0 NGrid=           0
         NMat0=    1 NMatS0=    496 NMatT0=    0 NMatD0=    1 NMtDS0=    0 NMtDT0=    0
 Petite list used in FoFCou.
          MDV=     131072000 using IRadAn=       1.
          Solving linear equations simultaneously, MaxMat=       0.
          There are     9 degrees of freedom in the 1st order CPHF.  IDoFFX=4 NUNeed=     9.
[...]
               1
     1  O   -0.582609
     2  H    0.291304
     3  H    0.291304
 Sum of APT charges =  -0.00000
 APT charges with hydrogens summed into heavy atoms:
               1
     1  O   -0.000000
 Electronic spatial extent (au):  <R**2>=             19.8685
 Charge=             -0.0000 electrons
 Dipole moment (field-independent basis, Debye):
    X=             -0.0000    Y=             -0.0000    Z=             -2.2145  Tot=              2.2145
 Quadrupole moment (field-independent basis, Debye-Ang):
   XX=             -7.7783   YY=             -4.2864   ZZ=             -6.4426
   XY=              0.0000   XZ=              0.0000   YZ=             -0.0000
 Traceless Quadrupole moment (field-independent basis, Debye-Ang):
   XX=             -1.6092   YY=              1.8827   ZZ=             -0.2735
   XY=              0.0000   XZ=              0.0000   YZ=             -0.0000
 Octapole moment (field-independent basis, Debye-Ang**2):
  XXX=              0.0000  YYY=             -0.0000  ZZZ=             -1.6210  XYY=             -0.0000
  XXY=             -0.0000  XXZ=             -0.4771  XZZ=             -0.0000  YZZ=             -0.0000
  YYZ=             -1.4214  XYZ=             -0.0000
 Hexadecapole moment (field-independent basis, Debye-Ang**3):
 XXXX=             -7.5504 YYYY=             -6.2333 ZZZZ=             -7.7749 XXXY=             -0.0000
 XXXZ=             -0.0000 YYYX=             -0.0000 YYYZ=             -0.0000 ZZZX=             -0.0000
 ZZZY=              0.0000 XXYY=             -2.5864 XXZZ=             -2.6057 YYZZ=             -2.0215
 XXYZ=             -0.0000 YYXZ=              0.0000 ZZXY=              0.0000
 N-N= 9.161686947949D+00 E-N=-1.986421503894D+02  KE= 7.573493423848D+01
 Symmetry A1   KE= 6.765688467972D+01
 Symmetry A2   KE=-1.466013681623D-36
 Symmetry B1   KE= 4.457675518026D+00
 Symmetry B2   KE= 3.620374040725D+00
  Exact polarizability:   6.343   0.000   7.874   0.000  -0.000   6.448
 Approx polarizability:   5.161   0.000   7.709   0.000   0.000   5.932
 No NMR shielding tensors so no spin-rotation constants.
 Leave Link  601 at Wed Dec 29 11:03:42 2021, MaxMem=   131072000 cpu:               1.2 elap:               0.2
 (Enter /public/scc/g16/g16/l701.exe)
 ... and contract with generalized density number  0.
 Compute integral second derivatives.
 R6Disp: Adding Grimme-D2 dispersion energy 2nd derivatives to the Hessian.
 Leave Link  701 at Wed Dec 29 11:03:42 2021, MaxMem=   131072000 cpu:               1.8 elap:               0.2
 (Enter /public/scc/g16/g16/l702.exe)
 L702 exits ... SP integral derivatives will be done elsewhere.
 Leave Link  702 at Wed Dec 29 11:03:43 2021, MaxMem=   131072000 cpu:               0.1 elap:               0.0
 (Enter /public/scc/g16/g16/l703.exe)
 Integral derivatives from FoFJK, PRISM(SPDF).
 Compute integral second derivatives, UseDBF=F ICtDFT=           0.
 Calling FoFJK, ICntrl=    100127 FMM=F ISym2X=1 I1Cent= 0 IOpClX= 0 NMat=1 NMatS=1 NMatT=0.
 FoFJK:  IHMeth= 1 ICntrl=  100127 DoSepK=T KAlg= 0 I1Cent=           0 FoldK=F
 IRaf=         1 NMat=       1 IRICut=       1 DoRegI=T DoRafI=F ISym2E= 1 IDoP0=0 IntGTp=1.
 FoFCou: FMM=F IPFlag=           0 FMFlag=      100000 FMFlg1=         800
         NFxFlg=           0 DoJE=F BraDBF=F KetDBF=F FulRan=T
         wScrn=  0.000000 ICntrl=    100527 IOpCl=  0 I1Cent=           0 NGrid=           0
         NMat0=    1 NMatS0=      1 NMatT0=    0 NMatD0=    1 NMtDS0=    0 NMtDT0=    0
 Petite list used in FoFCou.
 Leave Link  703 at Wed Dec 29 11:03:44 2021, MaxMem=   131072000 cpu:              10.8 elap:               1.4
 (Enter /public/scc/g16/g16/l716.exe)
 Dipole        =-5.65395730D-17-1.02233044D-31-8.71251324D-01
 Polarizability= 6.34335401D+00 1.51396132D-11 7.87391248D+00
                 2.10080137D-11-4.30752232D-11 6.44750752D+00
 Full mass-weighted force constant matrix:
 Low frequencies ---    0.0020    0.0021    0.0028   48.4496   50.0400   51.9536
 Low frequencies --- 1615.2541 3899.2734 4025.9722
 Diagonal vibrational polarizability:
        0.0000000       0.1027920       0.9717784
 Harmonic frequencies (cm**-1), IR intensities (KM/Mole), Raman scattering
 activities (A**4/AMU), depolarization ratios for plane and unpolarized
 incident light, reduced masses (AMU), force constants (mDyne/A),
 and normal coordinates:
                      1                      2                      3
                     A1                     A1                     B2
 Frequencies --   1615.2541              3899.2734              4025.9722
 Red. masses --      1.0836                 1.0443                 1.0833
 Frc consts  --      1.6657                 9.3553                10.3449
 IR Inten    --     92.7921                 8.2866                61.9110
  Atom  AN      X      Y      Z        X      Y      Z        X      Y      Z
     1   8    -0.00   0.00  -0.07     0.00  -0.00   0.05    -0.00  -0.07  -0.00
     2   1     0.00   0.42   0.56     0.00   0.59  -0.39     0.00   0.56  -0.42
     3   1     0.00  -0.42   0.56    -0.00  -0.59  -0.39     0.00   0.56   0.42

 -------------------
 - Thermochemistry -
 -------------------
 Temperature   298.150 Kelvin.  Pressure   1.00000 Atm.
 Atom     1 has atomic number  8 and mass  15.99491
 Atom     2 has atomic number  1 and mass   1.00783
 Atom     3 has atomic number  1 and mass   1.00783
 Molecular mass:    18.01056 amu.
 Principal axes and moments of inertia in atomic units:
                           1         2         3
     Eigenvalues --     2.13915   4.22959   6.36874
           X            0.00000   0.00000   1.00000
           Y            1.00000   0.00000   0.00000
           Z            0.00000   1.00000   0.00000
 This molecule is an asymmetric top.
 Rotational symmetry number  2.
 Rotational temperatures (Kelvin)     40.48979    20.47810    13.59985
 Rotational constants (GHZ):         843.67036   426.69436   283.37483
 Zero-point vibrational energy      57064.9 (Joules/Mol)
                                   13.63883 (Kcal/Mol)
 Vibrational temperatures:   2323.99  5610.18  5792.48
          (Kelvin)
 
 Zero-point correction=                           0.021735 (Hartree/Particle)
 Thermal correction to Energy=                    0.024570
 Thermal correction to Enthalpy=                  0.025515
 Thermal correction to Gibbs Free Energy=         0.004101
 Sum of electronic and zero-point Energies=            -76.387891
 Sum of electronic and thermal Energies=               -76.385056
 Sum of electronic and thermal Enthalpies=             -76.384111
 Sum of electronic and thermal Free Energies=          -76.405525
 
                     E (Thermal)             CV                S
                      KCal/Mol        Cal/Mol-Kelvin    Cal/Mol-Kelvin
 Total                   15.418              6.011             45.069
 Electronic               0.000              0.000              0.000
 Translational            0.889              2.981             34.608
 Rotational               0.889              2.981             10.453
 Vibrational             13.641              0.050              0.007
                       Q            Log10(Q)             Ln(Q)
 Total Bot       0.129929D-01         -1.886295         -4.343355
 Total V=0       0.129133D+09          8.111036         18.676351
 Vib (Bot)       0.100658D-09         -9.997153        -23.019295
 Vib (V=0)       0.100041D+01          0.000179          0.000412
 Electronic      0.100000D+01          0.000000          0.000000
 Translational   0.300431D+07          6.477745         14.915559
 Rotational      0.429648D+02          1.633113          3.760381
 
                                                                aaaaa
                                                             IR Spectrum
 
     4   3                                                                        1                                                  
     0   8                                                                        6                                                  
     2   9                                                                        1                                                  
     6   9                                                                        5                                                  
 
     X   X                                                                        X                                                  
     X   X                                                                        X                                                  
     X                                                                            X                                                  
     X                                                                            X                                                  
     X                                                                            X                                                  
     X                                                                            X                                                  
     X                                                                            X                                                  
     X                                                                            X                                                  
     X                                                                            X                                                  
     X                                                                            X                                                  
     X                                                                            X                                                  
     X                                                                            X                                                  
     X                                                                            X                                                  
                                                                                  X                                                  
                                                                                  X                                                  
                                                                                  X                                                  
                                                                                  X                                                  
                                                                                  X                                                  
                                                                                  X                                                  
                                                                                  X                                                  
 
 ***** Axes restored to original set *****
 -------------------------------------------------------------------
 Center     Atomic                   Forces (Hartrees/Bohr)
 Number     Number              X              Y              Z
 -------------------------------------------------------------------
      1        8          -0.000000000    0.000000000   -0.000020389
      2        1          -0.000000000   -0.000022373    0.000010194
      3        1           0.000000000    0.000022373    0.000010194
 -------------------------------------------------------------------
 Cartesian Forces:  Max     0.000022373 RMS     0.000013436
 Force constants in Cartesian coordinates: 
                1             2             3             4             5 
      1  0.182849D-03
      2  0.000000D+00  0.729425D+00
      3  0.000000D+00  0.000000D+00  0.461198D+00
      4 -0.914245D-04  0.000000D+00  0.000000D+00  0.934632D-04
      5  0.000000D+00 -0.364713D+00  0.213414D+00  0.000000D+00  0.392225D+00
      6  0.000000D+00  0.275074D+00 -0.230599D+00  0.000000D+00 -0.244244D+00
      7 -0.914245D-04  0.000000D+00  0.000000D+00 -0.203865D-05  0.000000D+00
      8  0.000000D+00 -0.364713D+00 -0.213414D+00  0.000000D+00 -0.275123D-01
      9  0.000000D+00 -0.275074D+00 -0.230599D+00  0.000000D+00  0.308301D-01
                6             7             8             9 
      6  0.219100D+00
      7  0.000000D+00  0.934632D-04
      8 -0.308301D-01  0.000000D+00  0.392225D+00
      9  0.114990D-01  0.000000D+00  0.244244D+00  0.219100D+00
 FormGI is forming the generalized inverse of G from B-inverse, IUseBI=4.
 Force constants in internal coordinates: 
                1             2             3 
      1  0.564328D+00
      2 -0.799217D-02  0.564328D+00
      3  0.294052D-01  0.294052D-01  0.154767D+00
 Leave Link  716 at Wed Dec 29 11:03:44 2021, MaxMem=   131072000 cpu:               0.2 elap:               0.0
 (Enter /public/scc/g16/g16/l103.exe)

 GradGradGradGradGradGradGradGradGradGradGradGradGradGradGradGradGradGrad
 Berny optimization.
 Red2BG is reusing G-inverse.
 Internal  Forces:  Max     0.000023999 RMS     0.000020378
 Search for a local minimum.
 Step number   1 out of a maximum of    2
 All quantities printed in internal units (Hartrees-Bohrs-Radians)
 Second derivative matrix not updated -- analytic derivatives used.
 The second derivative matrix:
                          R1        R2        A1
           R1           0.56433
           R2          -0.00799   0.56433
           A1           0.02941   0.02941   0.15477
 ITU=  0
     Eigenvalues ---    0.15051   0.56060   0.57232
 Angle between quadratic step and forces=  23.44 degrees.
 Linear search not attempted -- first point.
 Iteration  1 RMS(Cart)=  0.00004776 RMS(Int)=  0.00000000
 Iteration  2 RMS(Cart)=  0.00000000 RMS(Int)=  0.00000000
 ITry= 1 IFail=0 DXMaxC= 5.82D-05 DCOld= 1.00D+10 DXMaxT= 3.00D-01 DXLimC= 3.00D+00 Rises=F
 ClnCor:  largest displacement from symmetrization is 3.69D-20 for atom     1.
 Variable       Old X    -DE/DX   Delta X   Delta X   Delta X     New X
                                 (Linear)    (Quad)   (Total)
    R1        1.81477  -0.00002   0.00000  -0.00004  -0.00004   1.81473
    R2        1.81477  -0.00002   0.00000  -0.00004  -0.00004   1.81473
    A1        1.84865  -0.00001   0.00000  -0.00005  -0.00005   1.84861
         Item               Value     Threshold  Converged?
 Maximum Force            0.000024     0.000450     YES
 RMS     Force            0.000020     0.000300     YES
 Maximum Displacement     0.000058     0.001800     YES
 RMS     Displacement     0.000048     0.001200     YES
 Predicted change in Energy=-1.204001D-09
 Optimization completed.
    -- Stationary point found.
                           ----------------------------
                           !   Optimized Parameters   !
                           ! (Angstroms and Degrees)  !
 --------------------------                            --------------------------
 ! Name  Definition              Value          Derivative Info.                !
 --------------------------------------------------------------------------------
 ! R1    R(1,2)                  0.9603         -DE/DX =    0.0                 !
 ! R2    R(1,3)                  0.9603         -DE/DX =    0.0                 !
 ! A1    A(2,1,3)              105.92           -DE/DX =    0.0                 !
 --------------------------------------------------------------------------------
 GradGradGradGradGradGradGradGradGradGradGradGradGradGradGradGradGradGrad

 Leave Link  103 at Wed Dec 29 11:03:44 2021, MaxMem=   131072000 cpu:               0.1 elap:               0.0
 (Enter /public/scc/g16/g16/l9999.exe)

 ----------------------------------------------------------------------

 Electric dipole moment (input orientation):
 (Debye = 10**-18 statcoulomb cm , SI units = C m)
                  (au)            (Debye)         (10**-30 SI)
   Tot        0.871251D+00      0.221450D+01      0.738678D+01
   x          0.000000D+00      0.000000D+00      0.000000D+00
   y          0.000000D+00      0.000000D+00      0.000000D+00
   z         -0.871251D+00     -0.221450D+01     -0.738678D+01

 Dipole polarizability, Alpha (input orientation).
 (esu units = cm**3 , SI units = C**2 m**2 J**-1)
 Alpha(0;0):
               (au)            (10**-24 esu)      (10**-40 SI)
   iso        0.688826D+01      0.102073D+01      0.113572D+01
   aniso      0.148123D+01      0.219496D+00      0.244222D+00
   xx         0.634335D+01      0.939988D+00      0.104588D+01
   yx         0.000000D+00      0.000000D+00      0.000000D+00
   yy         0.787391D+01      0.116679D+01      0.129823D+01
   zx         0.000000D+00      0.000000D+00      0.000000D+00
   zy         0.000000D+00      0.000000D+00      0.000000D+00
   zz         0.644751D+01      0.955422D+00      0.106305D+01

 ----------------------------------------------------------------------

 Dipole orientation:
     8         -0.00000000          0.00000000         -0.20290953
     1          0.00000000         -1.44857654          0.89025669
     1         -0.00000000          1.44857654          0.89025669

 Electric dipole moment (dipole orientation):
 (Debye = 10**-18 statcoulomb cm , SI units = C m)
                  (au)            (Debye)         (10**-30 SI)
   Tot        0.871251D+00      0.221450D+01      0.738678D+01
   x          0.000000D+00      0.000000D+00      0.000000D+00
   y          0.000000D+00      0.000000D+00      0.000000D+00
   z          0.871251D+00      0.221450D+01      0.738678D+01

 Dipole polarizability, Alpha (dipole orientation).
 (esu units = cm**3 , SI units = C**2 m**2 J**-1)
 Alpha(0;0):
               (au)            (10**-24 esu)      (10**-40 SI)
   iso        0.688826D+01      0.102073D+01      0.113572D+01
   aniso      0.148123D+01      0.219496D+00      0.244222D+00
   xx         0.634335D+01      0.939988D+00      0.104588D+01
   yx         0.000000D+00      0.000000D+00      0.000000D+00
   yy         0.787391D+01      0.116679D+01      0.129823D+01
   zx         0.000000D+00      0.000000D+00      0.000000D+00
   zy         0.000000D+00      0.000000D+00      0.000000D+00
   zz         0.644751D+01      0.955422D+00      0.106305D+01

 ----------------------------------------------------------------------
 1\1\GINC-NODE25\Freq\RwB97XD\6-31++G(d,p)\H2O1\ROOT\29-Dec-2021\0\\#P 
 Geom=AllCheck Guess=TCheck SCRF=Check GenChk RwB97XD/6-31++G(d,p) Freq
 \\aaaaa\\0,1\O,0.,0.,0.1073751014\H,0.,0.7665536924,-0.4711035507\H,0.
 ,-0.7665536924,-0.4711035507\\Version=ES64L-G16RevA.03\State=1-A1\HF=-
 76.409626\RMSD=0.000e+00\RMSF=1.344e-05\ZeroPoint=0.0217349\Thermal=0.
 0245704\Dipole=0.,0.,-0.8712513\DipoleDeriv=-0.7970508,0.,0.,0.,-0.542
 5353,0.,0.,0.,-0.4082407,0.3985254,0.,0.,0.,0.2712677,0.0730178,0.,0.0
 960931,0.2041203,0.3985254,0.,0.,0.,0.2712677,-0.0730178,0.,-0.0960931
 ,0.2041203\Polar=6.343354,0.,7.8739125,0.,0.,6.4475075\Quadrupole=-1.1
 963801,1.3997411,-0.2033609,0.,0.,0.\PG=C02V [C2(O1),SGV(H2)]\NImag=0\
 \0.00018285,0.,0.72942542,0.,0.,0.46119782,-0.00009142,0.,0.,0.0000934
 6,0.,-0.36471271,0.21341352,0.,0.39222501,0.,0.27507371,-0.23059891,0.
 ,-0.24424361,0.21909992,-0.00009142,0.,0.,-0.00000204,0.,0.,0.00009346
 ,0.,-0.36471271,-0.21341352,0.,-0.02751229,-0.03083009,0.,0.39222501,0
 .,-0.27507371,-0.23059891,0.,0.03083009,0.01149899,0.,0.24424361,0.219
 09992\\0.,0.,0.00002039,0.,0.00002237,-0.00001019,0.,-0.00002237,-0.00
 001019\\\@


 ERWIN WITH HIS PSI CAN DO
 CALCULATIONS QUITE A FEW.
 BUT ONE THING HAS NOT BEEN SEEN
 JUST WHAT DOES PSI REALLY MEAN.
 -- WALTER HUCKEL, TRANS. BY FELIX BLOCH
 Job cpu time:       0 days  0 hours  0 minutes 30.9 seconds.
 Elapsed time:       0 days  0 hours  0 minutes  4.2 seconds.
 File lengths (MBytes):  RWF=      6 Int=      0 D2E=      0 Chk=      2 Scr=      1
 Normal termination of Gaussian 16 at Wed Dec 29 11:03:44 2021.
