17
Properties=species:S:1:pos:R:3:forces:R:3 -1912.06302=T energy=-22728.752754913166 free_energy=-22728.752754913166 pbc="F F F"
S       12.71630143       3.44997809     -20.81476040      -0.00006496       0.00001152       0.00028274
O       13.95570764       3.94882668     -21.35085673       0.00023079       0.00004292      -0.00004005
O       11.81804868       2.63244888     -21.58925962      -0.00029206      -0.00011200      -0.00017729
O       13.04220041       2.76964409     -19.43365344       0.00017795      -0.00007062       0.00004679
O       11.80368090       4.70223284     -20.32961700      -0.00013265      -0.00014282      -0.00027636
H       12.14869979       2.55734749     -18.97353604       0.00005016       0.00001746       0.00000030
H       12.33175406       5.25758551     -19.73213030       0.00004954       0.00027626       0.00020001
N       10.75099093       2.33347511     -18.18044152       0.00004292       0.00006195       0.00021401
C       10.70445836       0.90854442     -17.87133479      -0.00017068       0.00015891       0.00005193
C        9.60522241       2.79070887     -18.96619279       0.00001840      -0.00006948      -0.00000138
H       10.83902855       2.87834099     -17.32848937       0.00009832       0.00003602      -0.00008422
H       10.58678668       0.34728807     -18.80363093       0.00011015      -0.00010659      -0.00019922
H       11.64377539       0.60081355     -17.40840244       0.00000851      -0.00001828      -0.00003451
H        9.86911728       0.64609757     -17.20730790      -0.00005591      -0.00004813       0.00011476
H        9.63410755       2.30188950     -19.94275389      -0.00005162       0.00001375      -0.00014039
H        8.64177126       2.55722835     -18.49002998      -0.00013301      -0.00009461       0.00006734
H        9.67546442       3.86672787     -19.12155330       0.00011387       0.00004387      -0.00002442
