17
Properties=species:S:1:pos:R:3:forces:R:3 -1912.04811=T energy=-22728.83689896287 free_energy=-22728.83689896287 pbc="F F F"
S        8.61949182     -18.15142736      21.16720619      -0.00015785      -0.00012553      -0.00002846
O        8.78497649     -19.57846755      21.33279803      -0.00015992      -0.00008011      -0.00013006
O        8.76541295     -17.58888802      19.84310541      -0.00007880      -0.00009894       0.00012982
O        7.29721394     -17.65869680      21.83656874       0.00047424       0.00000435       0.00008166
O        9.59154618     -17.38234812      22.18685287      -0.00000232       0.00043231       0.00020581
H        6.51700360     -18.00981232      21.27907332      -0.00005744      -0.00004107      -0.00006919
H       10.51669051     -17.56277093      21.93857316       0.00000557      -0.00006172      -0.00005834
N        5.31533425     -18.74905001      20.37800720       0.00006369       0.00009996      -0.00001669
C        5.97222612     -19.58026471      19.36785055      -0.00000226      -0.00009072       0.00005925
C        4.41128420     -17.75921590      19.80222134       0.00023153      -0.00007066       0.00016611
H        4.81950442     -19.32989470      21.04739376       0.00012893      -0.00014160      -0.00005663
H        6.55896244     -18.93186053      18.71172417      -0.00030840      -0.00008830       0.00014962
H        6.66034445     -20.27232436      19.85477143       0.00000036      -0.00003555      -0.00007740
H        5.25941941     -20.14699905      18.75282033       0.00011602       0.00001288      -0.00005363
H        4.98209907     -17.10637261      19.13499415       0.00005886       0.00027210      -0.00019344
H        3.59540070     -18.21333750      19.22066556      -0.00021237      -0.00009732      -0.00018626
H        3.98353228     -17.14148080      20.59398241      -0.00009961       0.00011039       0.00007787
