17
Properties=species:S:1:pos:R:3:forces:R:3 -1912.04341=T energy=-22728.83687341755 free_energy=-22728.83687341755 pbc="F F F"
S       14.70354124     -22.12980707       5.24260492       0.00028040      -0.00042820       0.00007476
O       14.79099388     -23.31209752       4.41474153       0.00019839      -0.00006747       0.00001228
O       15.25552534     -20.89186230       4.73850577       0.00012267       0.00008416       0.00005795
O       13.17747656     -21.89168518       5.67924920      -0.00033134      -0.00017205      -0.00024495
O       15.21721796     -22.42558612       6.68777480       0.00001964      -0.00015336      -0.00017971
H       12.65062923     -21.68213899       4.88638362       0.00042076       0.00004454       0.00037898
H       16.20587943     -22.67211394       6.62085879      -0.00006722      -0.00001306       0.00010042
N       17.85038324     -22.91535462       6.41660472      -0.00000703       0.00003442       0.00004311
C       18.15932677     -22.71306783       5.00006546      -0.00012448       0.00009784       0.00005138
C       18.25130620     -24.23004504       6.90593306      -0.00004402       0.00023285       0.00002278
H       18.27775342     -22.18620621       6.97966427       0.00006629      -0.00002353      -0.00002612
H       17.63895670     -23.47779623       4.41699616      -0.00022079       0.00016915      -0.00008061
H       17.78703982     -21.73898879       4.68051864       0.00013925       0.00040829      -0.00007730
H       19.23456601     -22.78164933       4.78388520      -0.00001122      -0.00040410      -0.00011140
H       17.73004833     -24.99603567       6.32400179      -0.00022994       0.00010235      -0.00005775
H       19.33304509     -24.40840911       6.81556367      -0.00013436      -0.00007477      -0.00002214
H       17.95770240     -24.34281538       7.95119809      -0.00007688       0.00016246       0.00005811
