17
Properties=species:S:1:pos:R:3:forces:R:3 -1911.78708=T energy=-22728.21734338091 free_energy=-22728.21734338091 pbc="F F F"
S        7.12921822       1.93040006      -7.66639635      -0.00030854      -0.00001038       0.00001453
O        7.45061812       1.23176328      -8.88990265       0.00029653       0.00033927      -0.00039339
O        5.77238251       2.16052671      -7.25899582       0.00009644      -0.00012994       0.00019288
O        7.94615460       1.23535858      -6.46097212      -0.00002801       0.00026001       0.00008303
O        7.88342189       3.33668802      -7.63247744       0.00005411       0.00012508       0.00034815
H        7.67116059       0.30320469      -6.40259867       0.00044179      -0.00076547      -0.00043259
H        8.75627026       3.23371616      -8.05051941      -0.00008695       0.00021537       0.00001922
N        3.82611723       3.65628823     -10.73874405      -0.00022043      -0.00033012      -0.00013410
C        5.01470682       2.82546163     -10.62320379       0.00002825      -0.00011086       0.00027928
C        2.60684525       2.91361659     -10.48068303       0.00012368      -0.00002720      -0.00012121
H        3.89372361       4.43142908     -10.08735226       0.00000580       0.00001571      -0.00043952
H        5.02813777       2.09596004     -11.44165320      -0.00008931      -0.00026241       0.00057758
H        5.91620119       3.44004827     -10.71514845      -0.00020939      -0.00037712       0.00015958
H        5.07558020       2.26573875      -9.67502206      -0.00016887       0.00023361       0.00011238
H        2.46862684       2.15981474     -11.26473494       0.00006143       0.00015680       0.00029856
H        2.59478529       2.39033223      -9.50659935      -0.00017205       0.00066890      -0.00022870
H        1.74576419       3.58838689     -10.52084758       0.00017553      -0.00000124      -0.00033577
