17
Properties=species:S:1:pos:R:3:forces:R:3 -1911.73601=T energy=-22728.257184447928 free_energy=-22728.257184447928 pbc="F F F"
S       32.37174283     -21.50982056      21.05811968       0.00030049      -0.00041460      -0.00007339
O       32.04878083     -21.64539123      22.45421722       0.00008454      -0.00040793      -0.00000763
O       31.70003127     -22.21698185      20.00116188       0.00046143      -0.00067624       0.00002885
O       32.31345960     -19.93280579      20.73268834      -0.00037782       0.00005645      -0.00059819
O       33.94337087     -21.81433210      20.87967974       0.00022762       0.00029737       0.00056003
H       32.25193669     -19.82834323      19.76771560      -0.00014369      -0.00021194       0.00018576
H       34.37654032     -21.66888701      21.73822994      -0.00027398       0.00061204      -0.00022953
N       28.15683890     -22.01589420      22.41976700       0.00009269       0.00004657      -0.00003870
C       28.84231420     -23.02599181      21.62973868      -0.00018805       0.00017655      -0.00009143
C       28.63221176     -20.67471140      22.12596412       0.00022479       0.00002754       0.00008274
H       27.15550766     -22.07147361      22.26217841       0.00035470      -0.00010910       0.00007387
H       29.91276719     -22.98737349      21.85780497      -0.00057056       0.00000433      -0.00008509
H       28.47994967     -24.02130641      21.90331989       0.00002319       0.00040311      -0.00041333
H       28.72743573     -22.90200392      20.53909885       0.00006216       0.00001222       0.00002809
H       29.70429262     -20.63119483      22.34345568      -0.00042226       0.00000691       0.00011814
H       28.48430544     -20.36186691      21.07750053      -0.00008546       0.00015962       0.00034364
H       28.13121989     -19.94953533      22.77489069       0.00023005       0.00001740       0.00011590
