17
Properties=species:S:1:pos:R:3:forces:R:3 -1911.74295=T energy=-22728.359031910353 free_energy=-22728.359031910353 pbc="F F F"
S       16.18782534     -20.65320221       6.83714401      -0.00040844      -0.00033507       0.00032861
O       16.47594652     -21.83586504       6.06360985       0.00001150       0.00023425      -0.00014246
O       14.88632379     -20.03798152       6.74856809       0.00014603      -0.00021994      -0.00001985
O       16.58609205     -20.87581354       8.37446131      -0.00025433       0.00008519       0.00009328
O       17.33199813     -19.55003502       6.62804965       0.00027308       0.00002682      -0.00010741
H       15.86817698     -21.34562414       8.83472997       0.00021892       0.00017769      -0.00021464
H       17.15191243     -19.04636374       5.81477237       0.00001026       0.00002479       0.00006854
N       20.89413452     -21.80403802       6.87074485      -0.00001608      -0.00005059       0.00001883
C       20.71807013     -20.95299536       5.70866328      -0.00006776      -0.00005114      -0.00004697
C       19.64107436     -22.06425808       7.56170120      -0.00020009       0.00014180       0.00020123
H       21.32570386     -22.67980132       6.59149062      -0.00003707      -0.00001025       0.00006048
H       20.30544546     -19.99068043       6.03316044      -0.00001464       0.00006819       0.00000929
H       21.68680317     -20.75444377       5.23825018       0.00012296       0.00000542      -0.00004153
H       20.03832232     -21.36835581       4.94286280       0.00001404       0.00001381       0.00002976
H       19.26917529     -21.12751279       7.98695935       0.00013716      -0.00025488      -0.00003376
H       18.84777945     -22.47766604       6.91917988       0.00006151      -0.00002757       0.00015113
H       19.81300379     -22.75515058       8.39324376       0.00000291       0.00017145      -0.00035453
