17
Properties=species:S:1:pos:R:3:forces:R:3 -1912.05122=T energy=-22728.836887001173 free_energy=-22728.836887001173 pbc="F F F"
S       11.56236164     -22.91000169       7.97112133       0.00041902       0.00016301      -0.00017494
O       11.96374947     -23.58025733       6.75426061      -0.00016519       0.00041056       0.00062823
O       12.55998847     -22.17231678       8.71392365      -0.00039136      -0.00036943      -0.00028360
O       10.31022642     -21.95280280       7.66775181       0.00065166      -0.00027932       0.00019133
O       10.77237581     -23.88133844       8.90475567      -0.00010033      -0.00019807      -0.00021034
H       10.59554313     -21.23997425       7.06728843      -0.00018792       0.00056504       0.00028832
H       11.40521424     -24.63544507       9.17611117      -0.00006252      -0.00015339      -0.00027287
N       12.55954774     -25.74417120       9.66689017       0.00028622       0.00021711       0.00002426
C       13.83587910     -25.33800494       9.07621832       0.00001764       0.00018722      -0.00028640
C       12.16846704     -27.10152633       9.30171621      -0.00009868      -0.00030719       0.00011577
H       12.58970254     -25.64752476      10.67737447       0.00004404       0.00016401      -0.00021469
H       13.74443863     -25.38027111       7.98764841      -0.00006250      -0.00024648      -0.00004740
H       14.05493958     -24.30589519       9.35251896      -0.00028250      -0.00002357      -0.00033143
H       14.67155762     -25.98268874       9.38211673      -0.00026950       0.00031418      -0.00003615
H       12.07781112     -27.16156885       8.21292793       0.00053197      -0.00034097       0.00043009
H       12.89821022     -27.85804389       9.62621700      -0.00020269      -0.00011012       0.00059119
H       11.19463466     -27.33698858       9.73491757      -0.00012757       0.00000745      -0.00041101
