17
Properties=species:S:1:pos:R:3:forces:R:3 -1911.74920=T energy=-22728.378822639173 free_energy=-22728.378822639173 pbc="F F F"
S       10.22488238       0.09910704     -19.75149099      -0.00041306       0.00003309      -0.00017254
O       10.98910066      -1.06722339     -20.10632067       0.00019312      -0.00052357      -0.00013588
O        9.78235708       1.08903617     -20.69990594       0.00024229       0.00011694       0.00000638
O        8.95019288      -0.43706506     -18.92985456       0.00018908      -0.00024962       0.00008518
O       11.02567717       0.90565802     -18.61088675       0.00020099       0.00029705       0.00029720
H        8.37117087       0.32058941     -18.73947223      -0.00026824       0.00024661       0.00007987
H       11.62708005       0.28237716     -18.16951856      -0.00019268       0.00004888      -0.00014131
N        9.19577967      -0.39595991     -23.25386217       0.00003445       0.00031127      -0.00002560
C       10.60528102      -0.61131360     -23.53447941      -0.00024199      -0.00005993      -0.00007772
C        8.54828131      -1.55521274     -22.66363623      -0.00033335      -0.00033782       0.00002567
H        9.10551437       0.39245606     -22.62223398       0.00014123       0.00011339      -0.00002617
H       10.71284044      -1.38785401     -24.30147124      -0.00003717      -0.00016619      -0.00011786
H       11.03684156       0.30806257     -23.94630724       0.00003584       0.00037453      -0.00006270
H       11.19424676      -0.91139970     -22.65306244       0.00009691      -0.00006703       0.00024126
H        8.53159184      -2.37581120     -23.39096942      -0.00012907      -0.00000296       0.00022436
H        9.03613195      -1.92298279     -21.74623809      -0.00000454      -0.00000271      -0.00010741
H        7.50636887      -1.30983495     -22.42960022       0.00048608      -0.00013207      -0.00009270
