17
Properties=species:S:1:pos:R:3:forces:R:3 -1912.05315=T energy=-22728.75274943917 free_energy=-22728.75274943917 pbc="F F F"
S       27.81562355     -24.82780467      10.51929088       0.00006525       0.00014491      -0.00001122
O       28.51367886     -25.74246933      11.38599015       0.00037074      -0.00010693       0.00006747
O       27.41878549     -25.18780788       9.18313026       0.00001758       0.00009948      -0.00007582
O       26.50025192     -24.39454972      11.36691772      -0.00049643      -0.00001094      -0.00046408
O       28.57480945     -23.45232899      10.42911970      -0.00016959       0.00028789      -0.00001283
H       26.02084698     -23.71222020      10.86801288       0.00009611      -0.00066073       0.00043447
H       28.71526255     -23.11179521      11.38803912      -0.00014752       0.00016653      -0.00002613
N       28.82925772     -22.50126918      12.88680780      -0.00012846      -0.00024848       0.00009820
C       30.25235020     -22.26101975      13.09929392      -0.00002384      -0.00025296      -0.00018978
C       28.24114416     -23.39822360      13.88120359       0.00005195       0.00001273       0.00018348
H       28.32207677     -21.62250697      12.85530467       0.00027743       0.00004112      -0.00003208
H       30.77051732     -23.22373658      13.15139513       0.00002399      -0.00051602       0.00013505
H       30.66193129     -21.70255590      12.25569427       0.00032742       0.00027885       0.00008819
H       30.45515716     -21.71353631      14.03028143       0.00005702      -0.00006248      -0.00022560
H       28.69761162     -24.38503527      13.77489507       0.00027554       0.00044705      -0.00027171
H       28.39951615     -23.05238899      14.91309563      -0.00062299       0.00007126       0.00010930
H       27.17179910     -23.49583724      13.69720737       0.00002584       0.00030886       0.00019290
