17
Properties=species:S:1:pos:R:3:forces:R:3 -1912.03507=T energy=-22728.751290720375 free_energy=-22728.751290720375 pbc="F F F"
S       10.50910663       2.31427086     -19.14244598       0.00006357      -0.00063306       0.00018120
O       10.74361843       0.92094007     -19.43064265      -0.00015037       0.00023198      -0.00001797
O       11.07408598       3.37398138     -19.93842217       0.00010975       0.00025272      -0.00008690
O        8.89497609       2.49652184     -19.16003074       0.00011301      -0.00033453      -0.00012189
O       10.84642155       2.61676986     -17.63680823      -0.00002027       0.00010177       0.00002821
H        8.69786865       3.40517754     -19.44246851      -0.00017047       0.00015105      -0.00005044
H       10.52774540       1.82613266     -17.06698816       0.00014764       0.00022367       0.00017609
N        9.84814349       0.63181760     -16.16984281       0.00015461      -0.00026965       0.00035468
C       10.77201076      -0.47855702     -15.95500894       0.00029165      -0.00009549      -0.00048595
C        8.62414406       0.22756036     -16.86485552      -0.00001639       0.00005165       0.00007978
H        9.62343164       1.08057140     -15.28720296       0.00021463       0.00019953       0.00003864
H       11.04249983      -0.89823294     -16.92873816       0.00030180      -0.00066820      -0.00020328
H       11.68454114      -0.11771456     -15.47652479      -0.00039600       0.00020848       0.00005956
H       10.34067384      -1.28392041     -15.34202979      -0.00023524       0.00069532      -0.00047493
H        8.90336022      -0.26464671     -17.79848849       0.00071749      -0.00001408       0.00036895
H        8.01292831      -0.47049681     -16.27633773      -0.00082883      -0.00029997      -0.00008813
H        8.03166975       1.10791774     -17.11202854      -0.00029664       0.00019847       0.00024226
