17
Properties=species:S:1:pos:R:3:forces:R:3 -1912.05296=T energy=-22728.755980921986 free_energy=-22728.755980921986 pbc="F F F"
S        9.14326096     -21.33326389       3.27860466       0.00018671       0.00014134      -0.00010174
O       10.54607779     -21.35996077       2.94963337       0.00001192      -0.00019666      -0.00006668
O        8.11250708     -21.49159017       2.28419270       0.00012982      -0.00002478      -0.00002503
O        8.94524846     -22.50321525       4.38836697       0.00011539       0.00011118       0.00001824
O        8.80578072     -20.04544379       4.11380230       0.00039021      -0.00021866       0.00019911
H        8.02215102     -22.80367166       4.34631535       0.00011084       0.00020179       0.00019852
H        9.51839428     -19.95842156       4.84844399      -0.00016998       0.00027753      -0.00032911
N       10.59345747     -19.85516651       6.05824973      -0.00045708       0.00027006      -0.00023881
C       11.27016652     -21.13624135       6.25867673      -0.00018790      -0.00011170      -0.00013470
C        9.79555320     -19.43188853       7.20249014       0.00009805      -0.00010066       0.00021049
H       11.25990329     -19.13556798       5.79693756       0.00002588      -0.00043464      -0.00000665
H       10.51642708     -21.89705720       6.46993539      -0.00014428      -0.00027766       0.00010161
H       11.79170130     -21.42181880       5.34522466      -0.00049704      -0.00003083      -0.00023158
H       11.98602578     -21.11524066       7.09256554       0.00010017       0.00049639      -0.00002220
H        9.07848202     -20.22366718       7.43987565       0.00036837      -0.00016961       0.00018078
H       10.40231243     -19.23701831       8.09761801      -0.00022116       0.00012982       0.00015987
H        9.23167746     -18.53354203       6.94578962       0.00013998      -0.00006291       0.00008772
