17
Properties=species:S:1:pos:R:3:forces:R:3 -1912.06524=T energy=-22728.788402594473 free_energy=-22728.788402594473 pbc="F F F"
S       10.29070066       3.05745959     -24.47547101      -0.00030097       0.00003271       0.00010737
O       10.45778346       3.56794293     -25.81299805       0.00010565      -0.00009882       0.00011992
O       10.01509837       1.66683646     -24.21639777       0.00013196       0.00002432      -0.00019574
O       11.51082618       3.54519365     -23.61459800       0.00022149      -0.00002623      -0.00008008
O        9.07023119       3.87461906     -23.78044717      -0.00002166      -0.00010494       0.00010047
H       11.26355935       3.40085255     -22.62741109      -0.00004379       0.00001301       0.00007336
H        8.95516375       4.70615974     -24.27028087       0.00003229       0.00009728      -0.00012377
N       10.55275338       3.17105197     -21.17606915       0.00010877       0.00016787       0.00002514
C       11.18647358       3.96446464     -20.13372994       0.00000441       0.00008756      -0.00005084
C       10.51544042       1.74037767     -20.88401492       0.00013366       0.00012922      -0.00017531
H        9.62153836       3.51714955     -21.38828349       0.00003442       0.00011850       0.00016639
H       12.22414602       3.63483317     -20.02321798      -0.00017850      -0.00017226      -0.00021445
H       11.19555040       5.01699814     -20.42454314      -0.00016519       0.00003804      -0.00007004
H       10.68501416       3.86945827     -19.15913911       0.00002860      -0.00008969       0.00019303
H       11.53384398       1.39607203     -20.67662270       0.00005469      -0.00007252      -0.00005751
H        9.88649695       1.50245409     -20.01405707      -0.00001910      -0.00000406      -0.00009211
H       10.14541117       1.20287874     -21.75826125      -0.00012659      -0.00013984       0.00027424
