17
Properties=species:S:1:pos:R:3:forces:R:3 -1912.04429=T energy=-22728.752754102203 free_energy=-22728.752754102203 pbc="F F F"
S        8.11546134     -22.61925899       3.92785788       0.00004580       0.00015164       0.00018533
O        9.13576896     -23.37971032       3.25276851       0.00026214      -0.00010896      -0.00027996
O        7.20760125     -21.75475453       3.22017751       0.00008154      -0.00002205      -0.00000352
O        7.26204303     -23.73045749       4.74838141      -0.00048751      -0.00002998       0.00016707
O        8.73046588     -21.78551423       5.11241705       0.00012482       0.00010028      -0.00002712
H        6.59992804     -23.27288065       5.29290968       0.00005291      -0.00018159      -0.00000075
H        9.25040872     -22.43651152       5.71322286      -0.00007356       0.00004173       0.00003838
N        9.96583663     -23.47082407       6.73852542      -0.00001770      -0.00006035      -0.00029153
C       11.34279245     -23.00498720       6.86143940       0.00027812      -0.00034291      -0.00027437
C        9.86433451     -24.85260187       6.26984012      -0.00040247      -0.00000827      -0.00022914
H        9.47282488     -23.35581063       7.61839441      -0.00006925      -0.00042869      -0.00026546
H       11.85623865     -23.16106376       5.90747647      -0.00008828       0.00029565      -0.00047283
H       11.35219640     -21.93538156       7.07873234       0.00020178      -0.00088923       0.00025925
H       11.90272348     -23.53925940       7.64159506       0.00010397       0.00079843       0.00053410
H       10.25882152     -24.90623106       5.25250834       0.00077869       0.00042853       0.00023852
H       10.42789149     -25.55795515       6.89785150      -0.00003603       0.00049783      -0.00017002
H        8.81758783     -25.15356841       6.24549400      -0.00075492      -0.00024190       0.00059190
