17
Properties=species:S:1:pos:R:3:forces:R:3 -1912.04670=T energy=-22728.79233535711 free_energy=-22728.79233535711 pbc="F F F"
S        9.04184428     -16.99526054      -1.47928475       0.00011149      -0.00030280       0.00025299
O        9.79184837     -17.73424997      -2.46302510      -0.00036585      -0.00012457      -0.00007391
O        8.71350867     -15.60446449      -1.65940894      -0.00005800      -0.00004745       0.00019443
O        7.67117417     -17.84398561      -1.29030020       0.00056304       0.00041908       0.00003969
O        9.68522421     -17.14888117      -0.05219485      -0.00038402      -0.00002725      -0.00026444
H        7.12511019     -17.39526286      -0.62240254       0.00011896      -0.00012956      -0.00017308
H        9.69764266     -18.15309389       0.17285967       0.00006849       0.00001056       0.00002646
N        9.46782712     -19.75835672       0.30537561      -0.00016138       0.00007695       0.00013969
C        9.49263477     -20.19377518       1.69373582      -0.00004277      -0.00011507       0.00056994
C       10.43824269     -20.44591023      -0.54275013      -0.00018616      -0.00001679       0.00009182
H        8.53387156     -19.83461010      -0.08755970       0.00001366       0.00000751      -0.00022688
H       10.48310586     -19.98545038       2.11008355      -0.00060686      -0.00014655       0.00003052
H        8.75756262     -19.63031379       2.27237482       0.00063482      -0.00037255      -0.00043745
H        9.28638392     -21.26832286       1.80840282       0.00025336       0.00070480      -0.00005931
H       11.43461515     -20.33149255      -0.10350169      -0.00009701      -0.00003575      -0.00002865
H       10.22632925     -21.52020134      -0.64228460       0.00008272      -0.00005910       0.00000808
H       10.44701552     -19.98495416      -1.53154370       0.00005532       0.00015846      -0.00008976
