17
Properties=species:S:1:pos:R:3:forces:R:3 -1912.02610=T energy=-22728.788381306706 free_energy=-22728.788381306706 pbc="F F F"
S       10.12989774     -19.97094477       0.54389355       0.00001014       0.00033333       0.00036975
O        9.89398349     -19.79452715      -0.86368993       0.00004983      -0.00006180      -0.00031924
O       10.81000701     -18.94750807       1.31090940       0.00006986      -0.00015545      -0.00010061
O        8.79210877     -20.38242640       1.23503939      -0.00016749      -0.00010473       0.00010425
O       10.92870788     -21.36586694       0.77215345      -0.00022346       0.00002569       0.00003860
H        8.93457751     -20.38701011       2.25243911      -0.00001253      -0.00001572      -0.00001230
H       11.82625704     -21.27379096       0.40886271       0.00027018      -0.00001997      -0.00010387
N        9.22669164     -20.55491206       3.85076789       0.00030203      -0.00014390       0.00026332
C        8.92993439     -19.32513288       4.57974027       0.00018463       0.00013769      -0.00021365
C       10.62284912     -20.97508433       3.98834266       0.00009502      -0.00002727       0.00018643
H        8.60133719     -21.29898185       4.14432134       0.00007990       0.00004042      -0.00004972
H        9.57932188     -18.53097399       4.19848553       0.00037683       0.00015211      -0.00015083
H        7.89391916     -19.02808868       4.40572915      -0.00013554      -0.00014659       0.00045913
H        9.09940433     -19.41620225       5.66284997      -0.00040826      -0.00010759      -0.00028661
H       11.26400546     -20.14110624       3.69561443      -0.00037030      -0.00028314      -0.00007110
H       10.88025710     -21.26542559       5.01633293      -0.00014911       0.00015043       0.00019734
H       10.82465598     -21.80806757       3.31533429       0.00002838       0.00022632      -0.00031084
