17
Properties=species:S:1:pos:R:3:forces:R:3 -1911.75539=T energy=-22728.358617711256 free_energy=-22728.358617711256 pbc="F F F"
S        8.24069604      -2.23107642     -16.01473000      -0.00008112      -0.00015851       0.00012404
O        7.56684222      -2.70118549     -14.82960089      -0.00013590       0.00000216      -0.00012720
O        9.28568208      -2.95993551     -16.67814386       0.00012606      -0.00004166      -0.00008732
O        7.07548920      -1.89750895     -17.07903556      -0.00000253      -0.00001165       0.00009453
O        8.82229789      -0.76045619     -15.71814893      -0.00023252       0.00038321       0.00012469
H        7.47841796      -1.82393071     -17.96052077       0.00003026      -0.00001377       0.00007011
H        8.28434389      -0.35496765     -15.01663945       0.00024986      -0.00022325      -0.00020896
N        6.43432512      -5.44621781     -15.46815327      -0.00015005      -0.00013952       0.00003568
C        6.74453016      -5.39939673     -16.88540791      -0.00024754       0.00006314       0.00025535
C        7.04581226      -6.56585719     -14.78527209       0.00009434       0.00034332       0.00002684
H        6.70473032      -4.57245053     -15.02712509       0.00005633       0.00021212       0.00017886
H        6.27259626      -6.24767085     -17.39670184      -0.00022933      -0.00036055      -0.00021615
H        6.33338103      -4.48255560     -17.32267964      -0.00018672       0.00042677      -0.00015203
H        7.82506832      -5.42921977     -17.10781290       0.00074270      -0.00004837      -0.00007633
H        6.64724644      -7.50589197     -15.18718460      -0.00016764      -0.00050564      -0.00016082
H        8.14758746      -6.59959614     -14.87464761       0.00024597      -0.00010002      -0.00011315
H        6.78838953      -6.53070278     -13.72116503      -0.00011210       0.00017240       0.00023194
