17
Properties=species:S:1:pos:R:3:forces:R:3 -1912.03183=T energy=-22728.792335965332 free_energy=-22728.792335965332 pbc="F F F"
S       12.83924893       2.34944832     -20.12288129       0.00014469      -0.00015322      -0.00008206
O       12.15610223       1.08276934     -20.05108569      -0.00032091      -0.00084138      -0.00004327
O       13.36190782       2.86319147     -21.36281631       0.00020194       0.00032783      -0.00018632
O       11.78202302       3.41748545     -19.50949151       0.00015488       0.00006068       0.00025269
O       13.99186740       2.42612388     -19.05530899      -0.00030391       0.00018888       0.00035709
H       12.19667306       4.29699526     -19.52110454      -0.00001797       0.00029612       0.00003406
H       13.56282566       2.29161413     -18.12954445       0.00001706      -0.00004538       0.00017139
N       12.60521497       2.18457802     -16.81839596       0.00065947      -0.00015183      -0.00065720
C       13.25898772       2.70885951     -15.62866245      -0.00007546      -0.00005439      -0.00031620
C       12.15025574       0.80363923     -16.67771854      -0.00015428       0.00075805       0.00009809
H       11.83905825       2.78410165     -17.11172678      -0.00035070       0.00037938       0.00001432
H       14.14486251       2.10181879     -15.41776969      -0.00005367       0.00026846       0.00042930
H       13.58733712       3.73492952     -15.80757174      -0.00053212      -0.00071403       0.00037511
H       12.60820612       2.69397268     -14.74175625       0.00079286       0.00032923      -0.00042844
H       12.99952749       0.18091044     -16.37819450       0.00015566      -0.00000915       0.00025811
H       11.35879616       0.69430578     -15.92236956       0.00007579      -0.00047647      -0.00005670
H       11.78546324       0.44187029     -17.64016641      -0.00039351      -0.00016245      -0.00022012
