17
Properties=species:S:1:pos:R:3:forces:R:3 -1912.01320=T energy=-22728.836879094288 free_energy=-22728.836879094288 pbc="F F F"
S        7.55553436     -13.35229437      -5.59131396       0.00031391      -0.00033647      -0.00038424
O        8.78417701     -13.01547666      -4.90696205      -0.00002122      -0.00004619      -0.00006020
O        7.63528803     -13.86029954      -6.94276035      -0.00024652       0.00002670       0.00046504
O        6.65403955     -14.27054457      -4.70598565       0.00012368       0.00005431      -0.00015879
O        6.56184842     -12.09253207      -5.54888393      -0.00006772       0.00026494      -0.00030223
H        7.10195386     -15.18670018      -4.65338167      -0.00002559       0.00007637       0.00016017
H        6.95225191     -11.36419101      -6.06581272      -0.00013417      -0.00045552       0.00007934
N        7.99116319     -16.59871596      -4.51210356      -0.00009823      -0.00008166       0.00003769
C        9.25355386     -16.40460178      -5.22735602      -0.00005925       0.00000978       0.00008923
C        7.23139422     -17.74609530      -4.99667088      -0.00010818      -0.00016689      -0.00011497
H        8.15928516     -16.68525323      -3.51432717       0.00003789      -0.00007134       0.00013543
H        9.03366227     -16.25153507      -6.28741514       0.00000284       0.00030146       0.00021462
H        9.74933906     -15.50677315      -4.85635139       0.00024402      -0.00012679       0.00021291
H        9.93370713     -17.26252252      -5.13269761       0.00003198       0.00004286      -0.00021426
H        7.00989182     -17.59879476      -6.05798325      -0.00014654       0.00029086       0.00012263
H        7.77616433     -18.69573280      -4.88924783      -0.00002314       0.00009924      -0.00023118
H        6.28299303     -17.81681753      -4.46090950       0.00017639       0.00011839      -0.00005116
