17
Properties=species:S:1:pos:R:3:forces:R:3 -1912.05089=T energy=-22728.81013598396 free_energy=-22728.81013598396 pbc="F F F"
S       29.74758149     -22.39188930       4.40798153      -0.00027043       0.00029687       0.00037063
O       29.90314509     -23.81978903       4.26600646       0.00016886      -0.00024891       0.00008404
O       28.45454943     -21.80328473       4.13779217      -0.00029433      -0.00018764      -0.00015087
O       30.30022961     -21.89561759       5.78811078       0.00039864       0.00025187      -0.00023597
O       30.87211045     -21.64094400       3.53930508      -0.00043894      -0.00046271      -0.00069404
H       29.62094540     -22.16072152       6.49525037      -0.00014434       0.00017513       0.00020180
H       30.69742532     -21.79452332       2.59278671       0.00054242      -0.00001443       0.00027799
N       28.21215064     -22.38927912       7.42986061      -0.00017294       0.00004796       0.00008833
C       28.26689898     -21.33142390       8.43210385      -0.00004822      -0.00001782       0.00002134
C       27.97581282     -23.70936918       8.00056436       0.00002483       0.00006366      -0.00010496
H       27.52037377     -22.18031161       6.71299309       0.00007690       0.00044394      -0.00014423
H       29.05565554     -21.56719855       9.15387881       0.00030211      -0.00023033      -0.00006001
H       28.52386864     -20.38516679       7.95182870       0.00007500       0.00027826       0.00031197
H       27.31998151     -21.21162935       8.97828336      -0.00039278      -0.00011936       0.00006709
H       28.83155727     -23.98266621       8.62563205       0.00048378      -0.00020575       0.00052551
H       27.06487608     -23.75733352       8.61742211      -0.00028639      -0.00026146       0.00000141
H       27.89721179     -24.44609862       7.19816931      -0.00002411       0.00019070      -0.00055990
