17
Properties=species:S:1:pos:R:3:forces:R:3 -1912.00945=T energy=-22728.853648176842 free_energy=-22728.853648176842 pbc="F F F"
S       11.15168839       2.98056587     -17.40967036       0.00008538       0.00014373      -0.00025164
O       10.51582631       1.70903171     -17.67364363      -0.00012678      -0.00019336      -0.00004882
O       10.63263344       4.15621305     -18.07244344      -0.00000136       0.00017762       0.00004464
O       11.31269972       3.22291206     -15.87542775       0.00025907      -0.00003716      -0.00017160
O       12.72435461       2.85775927     -17.70280132       0.00000897       0.00006399       0.00065902
H       10.38380044       3.33429060     -15.46585191      -0.00017832      -0.00009055       0.00016852
H       12.85446557       2.69626803     -18.65500529      -0.00003858      -0.00004443      -0.00044364
N        8.79560653       3.49558264     -14.95836959      -0.00020936       0.00068194      -0.00018863
C        8.13182906       2.23312067     -15.29399334       0.00001299       0.00047457       0.00000432
C        8.25558429       4.65115271     -15.67955070      -0.00041780       0.00015578      -0.00004453
H        8.75466086       3.65735977     -13.95718477       0.00012547      -0.00013442       0.00024346
H        8.45459740       1.91549357     -16.28809215       0.00022263      -0.00033122      -0.00007041
H        8.41905956       1.46364050     -14.57441734       0.00014358      -0.00036170      -0.00004330
H        7.03637313       2.32387769     -15.28864730      -0.00033277       0.00009271       0.00014202
H        8.59116213       4.61016205     -16.71831224       0.00015377       0.00001659       0.00062165
H        7.15677374       4.67686613     -15.66228974       0.00025135      -0.00002182      -0.00009283
H        8.63048932       5.57329208     -15.23059108       0.00004202      -0.00059174      -0.00052826
