17
Properties=species:S:1:pos:R:3:forces:R:3 -1912.05355=T energy=-22728.760266858793 free_energy=-22728.760266858793 pbc="F F F"
S        9.49744501     -17.39137320      -6.44948918      -0.00020048       0.00055967       0.00004821
O       10.16186230     -18.64182084      -6.72177910       0.00031865      -0.00045824      -0.00019512
O        9.55740456     -16.27708392      -7.36095289       0.00017485       0.00006676      -0.00006098
O        7.93627873     -17.77834564      -6.23514837      -0.00018349      -0.00047687       0.00009581
O        9.89222297     -16.86168348      -5.02323916       0.00025722      -0.00005367       0.00028524
H        7.40152962     -16.99564752      -6.44786763      -0.00026399       0.00023184      -0.00010392
H        9.75127702     -17.62538299      -4.35134927      -0.00021019       0.00012761      -0.00010239
N        9.68246051     -18.93681287      -3.38655101       0.00021528       0.00002557      -0.00000688
C       11.03202538     -19.48867762      -3.49235171       0.00004852       0.00003329       0.00003886
C        8.64852548     -19.86192769      -3.85237709      -0.00009295      -0.00016014      -0.00001794
H        9.49050156     -18.63368411      -2.43693408       0.00009540       0.00012141       0.00024501
H       11.23617712     -19.70129227      -4.54433287       0.00007930      -0.00012904       0.00030145
H       11.75972669     -18.75535647      -3.14090258       0.00007538       0.00026049      -0.00012052
H       11.15431665     -20.41677955      -2.91647996      -0.00014342      -0.00019707      -0.00019602
H        8.82415958     -20.07865318      -4.90700156      -0.00028311      -0.00007927       0.00016784
H        8.65058151     -20.81169639      -3.29859343       0.00005615       0.00021268      -0.00023222
H        7.66573347     -19.39885951      -3.75533661       0.00005671      -0.00008476      -0.00014605
