17
Properties=species:S:1:pos:R:3:forces:R:3 -1911.75037=T energy=-22728.20113406522 free_energy=-22728.20113406522 pbc="F F F"
S       12.67733468       2.61998733     -18.77845207      -0.00011064       0.00022780       0.00009198
O       13.99666516       2.56035160     -19.34327005       0.00026584       0.00008854       0.00013733
O       11.54200369       1.92452734     -19.32206617      -0.00032103      -0.00006640       0.00007268
O       12.81768660       2.23940283     -17.22311633       0.00086677       0.00016980      -0.00041813
O       12.25363076       4.17520450     -18.66841278      -0.00011703      -0.00045243      -0.00021304
H       11.95218951       1.91387839     -16.91294894      -0.00086380      -0.00019443       0.00032239
H       13.06055807       4.70906365     -18.76066165       0.00028149       0.00027078       0.00007149
N        8.71955282       3.16675347     -16.30399924       0.00009539      -0.00047137      -0.00005111
C        9.93260555       3.89217310     -15.97814242      -0.00004387       0.00065887      -0.00001168
C        8.97684011       1.88086798     -16.92383823      -0.00010457       0.00010012       0.00011370
H        8.15698410       3.03948016     -15.46878633       0.00005595      -0.00010768      -0.00007150
H       10.47709692       4.11083799     -16.90280134      -0.00005155       0.00006206       0.00012753
H        9.67717560       4.84928903     -15.51243430       0.00022386      -0.00009212      -0.00012109
H       10.61955081       3.35600012     -15.29814401       0.00002767      -0.00012594      -0.00000894
H        9.56123125       2.03210274     -17.83807663       0.00004651       0.00021025      -0.00014046
H        9.52458548       1.16852809     -16.28018999      -0.00006179      -0.00009191       0.00002728
H        8.02925389       1.41185323     -17.20885259      -0.00018910      -0.00018609       0.00007145
