17
Properties=species:S:1:pos:R:3:forces:R:3 -1912.03147=T energy=-22728.74391542193 free_energy=-22728.74391542193 pbc="F F F"
S        9.74099365     -18.47347147      -0.48477907      -0.00007147       0.00015516       0.00003259
O       10.74855748     -19.37456043      -0.98151648      -0.00008404      -0.00027359      -0.00006676
O        8.93635618     -17.65651469      -1.35694332      -0.00000846      -0.00004411       0.00010881
O        8.74208056     -19.40574850       0.39746610       0.00025110       0.00000656      -0.00019851
O       10.33938891     -17.53169253       0.62567285       0.00001013       0.00025944       0.00007088
H        7.90924454     -18.92155016       0.52815045      -0.00013688      -0.00004654       0.00002966
H       10.82425369     -18.12199515       1.30905453       0.00002533      -0.00001532       0.00002542
N       11.36405674     -19.09308207       2.51847509      -0.00000705       0.00009209      -0.00027716
C       11.76542755     -20.41481861       2.03745652       0.00006774      -0.00036716      -0.00006300
C       10.20978010     -19.13625981       3.41456848       0.00018707      -0.00016989      -0.00009599
H       12.14696256     -18.62591700       2.96522443      -0.00005147       0.00016266       0.00017712
H       10.94202647     -20.84633509       1.46376128       0.00023539       0.00003508       0.00000414
H       12.62632524     -20.31922871       1.37409367      -0.00025833      -0.00018011       0.00026666
H       12.01856881     -21.10646727       2.85388148       0.00000216       0.00018020      -0.00028583
H        9.36097074     -19.54920077       2.86415806       0.00002921       0.00006376      -0.00000060
H       10.38845336     -19.75693672       4.30429682      -0.00006662      -0.00008989       0.00020468
H        9.95456169     -18.12479070       3.73545773      -0.00012352       0.00023182       0.00006805
