17
Properties=species:S:1:pos:R:3:forces:R:3 -1911.73261=T energy=-22728.272492378797 free_energy=-22728.272492378797 pbc="F F F"
S       -4.27705105     -16.40214280      20.73691835      -0.00025799      -0.00019372       0.00000662
O       -4.66513235     -16.55533752      19.36160314      -0.00003986      -0.00003560       0.00020862
O       -5.09207620     -16.82023445      21.84541275       0.00020666       0.00011528      -0.00006557
O       -2.83097031     -17.10472693      20.86903155      -0.00011623       0.00015787      -0.00017768
O       -3.88438339     -14.86535455      21.02087624       0.00002601      -0.00012848       0.00000755
H       -2.69384350     -17.33705688      21.80266606       0.00021832      -0.00009593       0.00023946
H       -3.18299702     -14.61514827      20.39600004       0.00001595      -0.00012046      -0.00012046
N       -8.20359206     -14.23454793      20.34536840      -0.00007843      -0.00000445      -0.00009398
C       -7.45781267     -14.49139484      19.12653756       0.00014013      -0.00000969       0.00010216
C       -7.34360817     -14.13608031      21.51222907       0.00003722      -0.00001502      -0.00001651
H       -8.75400480     -13.38735794      20.24395020      -0.00010812      -0.00014799       0.00003348
H       -6.88501655     -15.41691601      19.25090512       0.00005531       0.00018305      -0.00007565
H       -8.14722317     -14.63501887      18.28791459       0.00001252       0.00000983      -0.00013222
H       -6.74716638     -13.69042899      18.85449733      -0.00009002       0.00014445       0.00004185
H       -6.84834207     -15.10077793      21.66596250       0.00008273       0.00007418      -0.00002472
H       -6.55907926     -13.36265316      21.43661250      -0.00001547       0.00009489       0.00002208
H       -7.94629206     -13.92859363      22.40209613      -0.00008884      -0.00002836       0.00004473
